    6
step    0
Ti  1.234  -0.008  -0.490
O  2.478  -0.005  0.560
O  -0.038  1.329  -0.017
Ti  -1.212  -0.001  0.483
O  -2.530  0.016  -0.505
O  0.023  -1.315  -0.016
    6
step    1
Ti  1.236  -0.010  -0.488
O  2.481  -0.005  0.559
O  -0.041  1.327  -0.016
Ti  -1.212  0.002  0.481
O  -2.533  0.015  -0.506
O  0.021  -1.313  -0.017
    6
step    2
Ti  1.237  -0.011  -0.487
O  2.483  -0.005  0.558
O  -0.044  1.324  -0.014
Ti  -1.212  0.004  0.480
O  -2.535  0.013  -0.506
O  0.019  -1.310  -0.018
    6
step    3
Ti  1.239  -0.013  -0.485
O  2.485  -0.005  0.557
O  -0.046  1.320  -0.013
Ti  -1.212  0.007  0.479
O  -2.536  0.011  -0.506
O  0.017  -1.308  -0.019
    6
step    4
Ti  1.240  -0.015  -0.484
O  2.486  -0.005  0.557
O  -0.048  1.316  -0.011
Ti  -1.212  0.009  0.477
O  -2.536  0.009  -0.506
O  0.015  -1.305  -0.020
    6
step    5
Ti  1.241  -0.016  -0.483
O  2.487  -0.004  0.556
O  -0.049  1.311  -0.010
Ti  -1.213  0.012  0.476
O  -2.534  0.007  -0.505
O  0.013  -1.301  -0.020
    6
step    6
Ti  1.242  -0.017  -0.482
O  2.486  -0.004  0.555
O  -0.050  1.306  -0.009
Ti  -1.214  0.014  0.475
O  -2.532  0.006  -0.504
O  0.011  -1.298  -0.021
    6
step    7
Ti  1.242  -0.018  -0.482
O  2.486  -0.004  0.554
O  -0.049  1.301  -0.008
Ti  -1.214  0.016  0.475
O  -2.528  0.004  -0.503
O  0.009  -1.294  -0.022
    6
step    8
Ti  1.243  -0.019  -0.481
O  2.484  -0.003  0.554
O  -0.049  1.295  -0.007
Ti  -1.216  0.018  0.474
O  -2.524  0.002  -0.502
O  0.007  -1.290  -0.024
    6
step    9
Ti  1.243  -0.020  -0.481
O  2.483  -0.002  0.553
O  -0.047  1.290  -0.006
Ti  -1.217  0.019  0.474
O  -2.519  -0.001  -0.500
O  0.005  -1.286  -0.025
    6
step   10
Ti  1.243  -0.020  -0.482
O  2.481  -0.002  0.553
O  -0.045  1.285  -0.005
Ti  -1.218  0.021  0.474
O  -2.515  -0.003  -0.499
O  0.003  -1.282  -0.026
    6
step   11
Ti  1.243  -0.021  -0.482
O  2.480  -0.001  0.553
O  -0.042  1.280  -0.005
Ti  -1.220  0.022  0.474
O  -2.510  -0.005  -0.498
O  0.001  -1.278  -0.027
    6
step   12
Ti  1.243  -0.021  -0.483
O  2.479  0.000  0.553
O  -0.039  1.275  -0.005
Ti  -1.221  0.023  0.475
O  -2.506  -0.007  -0.497
O  -0.000  -1.275  -0.028
    6
step   13
Ti  1.243  -0.021  -0.484
O  2.478  0.001  0.554
O  -0.035  1.270  -0.004
Ti  -1.222  0.024  0.477
O  -2.502  -0.009  -0.497
O  -0.002  -1.271  -0.030
    6
step   14
Ti  1.242  -0.020  -0.486
O  2.478  0.002  0.555
O  -0.030  1.266  -0.005
Ti  -1.224  0.024  0.478
O  -2.499  -0.012  -0.497
O  -0.004  -1.268  -0.031
    6
step   15
Ti  1.242  -0.020  -0.488
O  2.479  0.004  0.556
O  -0.025  1.263  -0.005
Ti  -1.225  0.024  0.480
O  -2.498  -0.014  -0.497
O  -0.006  -1.265  -0.033
    6
step   16
Ti  1.241  -0.019  -0.490
O  2.480  0.005  0.558
O  -0.019  1.260  -0.005
Ti  -1.226  0.024  0.483
O  -2.497  -0.016  -0.498
O  -0.007  -1.262  -0.034
    6
step   17
Ti  1.240  -0.019  -0.492
O  2.481  0.006  0.559
O  -0.013  1.257  -0.006
Ti  -1.228  0.024  0.486
O  -2.497  -0.018  -0.499
O  -0.009  -1.260  -0.036
    6
step   18
Ti  1.239  -0.018  -0.495
O  2.483  0.007  0.561
O  -0.007  1.255  -0.006
Ti  -1.229  0.023  0.489
O  -2.498  -0.021  -0.500
O  -0.011  -1.258  -0.038
    6
step   19
Ti  1.239  -0.017  -0.497
O  2.486  0.009  0.563
O  -0.000  1.253  -0.007
Ti  -1.230  0.023  0.492
O  -2.500  -0.023  -0.502
O  -0.012  -1.257  -0.039
    6
step   20
Ti  1.238  -0.016  -0.500
O  2.488  0.010  0.565
O  0.006  1.252  -0.008
Ti  -1.230  0.022  0.496
O  -2.502  -0.025  -0.505
O  -0.014  -1.256  -0.041
    6
step   21
Ti  1.237  -0.014  -0.503
O  2.490  0.011  0.567
O  0.013  1.251  -0.009
Ti  -1.231  0.021  0.500
O  -2.505  -0.027  -0.507
O  -0.016  -1.255  -0.042
    6
step   22
Ti  1.237  -0.013  -0.505
O  2.492  0.013  0.568
O  0.020  1.251  -0.010
Ti  -1.232  0.020  0.504
O  -2.508  -0.029  -0.510
O  -0.018  -1.255  -0.044
    6
step   23
Ti  1.237  -0.012  -0.508
O  2.493  0.014  0.569
O  0.026  1.251  -0.011
Ti  -1.233  0.019  0.508
O  -2.511  -0.031  -0.513
O  -0.020  -1.255  -0.045
    6
step   24
Ti  1.237  -0.010  -0.511
O  2.493  0.015  0.570
O  0.032  1.252  -0.012
Ti  -1.234  0.017  0.512
O  -2.514  -0.033  -0.515
O  -0.022  -1.255  -0.046
    6
step   25
Ti  1.237  -0.009  -0.513
O  2.493  0.016  0.571
O  0.038  1.253  -0.013
Ti  -1.235  0.016  0.516
O  -2.517  -0.034  -0.518
O  -0.024  -1.256  -0.048
    6
step   26
Ti  1.238  -0.007  -0.515
O  2.492  0.018  0.571
O  0.044  1.254  -0.014
Ti  -1.235  0.014  0.519
O  -2.518  -0.036  -0.521
O  -0.026  -1.257  -0.049
    6
step   27
Ti  1.239  -0.006  -0.517
O  2.491  0.019  0.571
O  0.050  1.255  -0.015
Ti  -1.236  0.013  0.523
O  -2.519  -0.037  -0.523
O  -0.028  -1.258  -0.049
    6
step   28
Ti  1.240  -0.004  -0.519
O  2.488  0.020  0.570
O  0.054  1.257  -0.016
Ti  -1.238  0.011  0.526
O  -2.520  -0.038  -0.525
O  -0.031  -1.259  -0.050
    6
step   29
Ti  1.242  -0.003  -0.521
O  2.485  0.021  0.569
O  0.059  1.260  -0.016
Ti  -1.239  0.010  0.529
O  -2.519  -0.039  -0.526
O  -0.033  -1.261  -0.050
    6
step   30
Ti  1.243  -0.002  -0.522
O  2.481  0.022  0.568
O  0.063  1.262  -0.017
Ti  -1.240  0.008  0.531
O  -2.518  -0.040  -0.528
O  -0.035  -1.262  -0.050
    6
step   31
Ti  1.245  -0.000  -0.523
O  2.478  0.023  0.567
O  0.066  1.265  -0.017
Ti  -1.241  0.006  0.533
O  -2.517  -0.041  -0.528
O  -0.037  -1.264  -0.050
    6
step   32
Ti  1.247  0.001  -0.524
O  2.474  0.023  0.566
O  0.068  1.267  -0.017
Ti  -1.243  0.005  0.534
O  -2.515  -0.042  -0.529
O  -0.039  -1.266  -0.050
    6
step   33
Ti  1.249  0.002  -0.525
O  2.470  0.024  0.564
O  0.070  1.270  -0.017
Ti  -1.244  0.004  0.536
O  -2.512  -0.042  -0.529
O  -0.041  -1.268  -0.049
    6
step   34
Ti  1.251  0.002  -0.526
O  2.467  0.025  0.563
O  0.072  1.273  -0.017
Ti  -1.246  0.002  0.536
O  -2.510  -0.042  -0.529
O  -0.043  -1.269  -0.048
    6
step   35
Ti  1.252  0.003  -0.526
O  2.464  0.025  0.562
O  0.072  1.276  -0.016
Ti  -1.247  0.001  0.536
O  -2.507  -0.042  -0.529
O  -0.045  -1.271  -0.047
    6
step   36
Ti  1.254  0.003  -0.527
O  2.463  0.025  0.561
O  0.072  1.279  -0.015
Ti  -1.249  -0.000  0.536
O  -2.505  -0.042  -0.529
O  -0.047  -1.272  -0.046
    6
step   37
Ti  1.256  0.004  -0.527
O  2.462  0.026  0.560
O  0.071  1.281  -0.014
Ti  -1.250  -0.001  0.536
O  -2.503  -0.042  -0.528
O  -0.048  -1.274  -0.044
    6
step   38
Ti  1.258  0.004  -0.527
O  2.462  0.026  0.560
O  0.070  1.284  -0.013
Ti  -1.251  -0.002  0.535
O  -2.501  -0.041  -0.527
O  -0.050  -1.275  -0.043
    6
step   39
Ti  1.259  0.004  -0.527
O  2.463  0.026  0.560
O  0.068  1.287  -0.012
Ti  -1.252  -0.003  0.534
O  -2.500  -0.040  -0.526
O  -0.051  -1.276  -0.041
    6
step   40
Ti  1.260  0.004  -0.527
O  2.466  0.026  0.560
O  0.066  1.289  -0.010
Ti  -1.253  -0.003  0.532
O  -2.500  -0.040  -0.526
O  -0.052  -1.276  -0.039
    6
step   41
Ti  1.261  0.004  -0.527
O  2.469  0.026  0.560
O  0.063  1.291  -0.009
Ti  -1.254  -0.004  0.530
O  -2.500  -0.038  -0.525
O  -0.053  -1.277  -0.037
    6
step   42
Ti  1.262  0.003  -0.526
O  2.473  0.025  0.561
O  0.060  1.292  -0.007
Ti  -1.255  -0.004  0.528
O  -2.501  -0.037  -0.524
O  -0.053  -1.277  -0.034
    6
step   43
Ti  1.263  0.003  -0.526
O  2.478  0.025  0.562
O  0.056  1.294  -0.005
Ti  -1.255  -0.005  0.525
O  -2.502  -0.036  -0.523
O  -0.054  -1.277  -0.032
    6
step   44
Ti  1.263  0.002  -0.525
O  2.483  0.025  0.562
O  0.052  1.294  -0.004
Ti  -1.255  -0.005  0.523
O  -2.504  -0.034  -0.522
O  -0.054  -1.276  -0.030
    6
step   45
Ti  1.263  0.001  -0.524
O  2.489  0.025  0.563
O  0.048  1.295  -0.002
Ti  -1.255  -0.005  0.520
O  -2.506  -0.033  -0.521
O  -0.054  -1.276  -0.027
    6
step   46
Ti  1.263  0.000  -0.523
O  2.494  0.024  0.564
O  0.044  1.295  0.000
Ti  -1.255  -0.005  0.517
O  -2.508  -0.031  -0.520
O  -0.053  -1.275  -0.025
    6
step   47
Ti  1.263  -0.001  -0.522
O  2.498  0.024  0.564
O  0.040  1.295  0.002
Ti  -1.255  -0.005  0.514
O  -2.510  -0.029  -0.519
O  -0.052  -1.274  -0.023
    6
step   48
Ti  1.263  -0.002  -0.521
O  2.502  0.024  0.564
O  0.036  1.294  0.003
Ti  -1.254  -0.004  0.511
O  -2.512  -0.027  -0.519
O  -0.051  -1.273  -0.021
    6
step   49
Ti  1.262  -0.002  -0.519
O  2.504  0.023  0.564
O  0.032  1.293  0.005
Ti  -1.253  -0.004  0.508
O  -2.514  -0.025  -0.518
O  -0.049  -1.272  -0.019
    6
step   50
Ti  1.261  -0.003  -0.517
O  2.506  0.023  0.563
O  0.028  1.291  0.006
Ti  -1.252  -0.003  0.506
O  -2.515  -0.023  -0.517
O  -0.047  -1.270  -0.017
    6
step   51
Ti  1.261  -0.004  -0.516
O  2.506  0.023  0.562
O  0.024  1.289  0.008
Ti  -1.251  -0.003  0.503
O  -2.516  -0.021  -0.517
O  -0.045  -1.269  -0.015
    6
step   52
Ti  1.260  -0.005  -0.514
O  2.505  0.022  0.561
O  0.021  1.286  0.009
Ti  -1.249  -0.002  0.500
O  -2.516  -0.019  -0.516
O  -0.042  -1.268  -0.014
    6
step   53
Ti  1.258  -0.006  -0.511
O  2.503  0.021  0.559
O  0.018  1.284  0.010
Ti  -1.247  -0.001  0.498
O  -2.515  -0.017  -0.516
O  -0.038  -1.266  -0.012
    6
step   54
Ti  1.257  -0.007  -0.509
O  2.500  0.021  0.557
O  0.014  1.281  0.010
Ti  -1.246  -0.000  0.496
O  -2.514  -0.015  -0.515
O  -0.034  -1.265  -0.011
    6
step   55
Ti  1.256  -0.008  -0.507
O  2.496  0.020  0.554
O  0.011  1.278  0.011
Ti  -1.244  0.001  0.494
O  -2.513  -0.013  -0.515
O  -0.030  -1.264  -0.010
    6
step   56
Ti  1.254  -0.008  -0.505
O  2.492  0.019  0.552
O  0.008  1.274  0.011
Ti  -1.242  0.002  0.492
O  -2.511  -0.010  -0.515
O  -0.025  -1.263  -0.009
    6
step   57
Ti  1.252  -0.009  -0.503
O  2.487  0.018  0.549
O  0.006  1.271  0.012
Ti  -1.240  0.003  0.490
O  -2.509  -0.008  -0.516
O  -0.020  -1.262  -0.008
    6
step   58
Ti  1.250  -0.010  -0.501
O  2.482  0.017  0.546
O  0.003  1.268  0.012
Ti  -1.237  0.004  0.489
O  -2.507  -0.006  -0.516
O  -0.015  -1.261  -0.007
    6
step   59
Ti  1.248  -0.010  -0.499
O  2.477  0.015  0.544
O  0.001  1.265  0.012
Ti  -1.235  0.005  0.488
O  -2.505  -0.004  -0.517
O  -0.009  -1.261  -0.007
    6
step   60
Ti  1.245  -0.011  -0.497
O  2.472  0.014  0.541
O  -0.002  1.262  0.012
Ti  -1.233  0.007  0.488
O  -2.503  -0.002  -0.517
O  -0.004  -1.261  -0.006
    6
step   61
Ti  1.242  -0.011  -0.496
O  2.468  0.013  0.539
O  -0.004  1.259  0.011
Ti  -1.230  0.008  0.487
O  -2.502  0.001  -0.518
O  0.002  -1.262  -0.006
    6
step   62
Ti  1.239  -0.012  -0.495
O  2.465  0.012  0.537
O  -0.006  1.256  0.011
Ti  -1.228  0.009  0.487
O  -2.501  0.003  -0.520
O  0.008  -1.263  -0.006
    6
step   63
Ti  1.236  -0.012  -0.494
O  2.463  0.011  0.536
O  -0.008  1.254  0.011
Ti  -1.226  0.010  0.487
O  -2.501  0.005  -0.521
O  0.013  -1.265  -0.005
    6
step   64
Ti  1.233  -0.012  -0.493
O  2.462  0.010  0.535
O  -0.010  1.253  0.010
Ti  -1.223  0.011  0.488
O  -2.500  0.007  -0.523
O  0.018  -1.267  -0.005
    6
step   65
Ti  1.230  -0.012  -0.493
O  2.462  0.009  0.535
O  -0.011  1.252  0.009
Ti  -1.221  0.012  0.488
O  -2.501  0.009  -0.524
O  0.023  -1.269  -0.005
    6
step   66
Ti  1.227  -0.012  -0.493
O  2.462  0.009  0.535
O  -0.013  1.251  0.009
Ti  -1.219  0.012  0.489
O  -2.501  0.012  -0.526
O  0.028  -1.272  -0.005
    6
step   67
Ti  1.223  -0.012  -0.494
O  2.464  0.008  0.535
O  -0.014  1.251  0.008
Ti  -1.217  0.013  0.490
O  -2.502  0.014  -0.528
O  0.032  -1.275  -0.004
    6
step   68
Ti  1.220  -0.012  -0.494
O  2.466  0.007  0.536
O  -0.015  1.252  0.007
Ti  -1.215  0.013  0.491
O  -2.503  0.016  -0.529
O  0.036  -1.278  -0.004
    6
step   69
Ti  1.217  -0.011  -0.495
O  2.469  0.007  0.537
O  -0.016  1.253  0.007
Ti  -1.213  0.013  0.492
O  -2.503  0.018  -0.531
O  0.040  -1.282  -0.004
    6
step   70
Ti  1.214  -0.011  -0.496
O  2.472  0.006  0.538
O  -0.017  1.254  0.006
Ti  -1.212  0.012  0.493
O  -2.504  0.020  -0.532
O  0.043  -1.285  -0.003
    6
step   71
Ti  1.211  -0.010  -0.498
O  2.476  0.006  0.540
O  -0.018  1.256  0.005
Ti  -1.211  0.012  0.495
O  -2.504  0.022  -0.534
O  0.046  -1.289  -0.003
    6
step   72
Ti  1.209  -0.009  -0.499
O  2.479  0.006  0.541
O  -0.019  1.259  0.004
Ti  -1.210  0.011  0.496
O  -2.503  0.024  -0.535
O  0.048  -1.294  -0.002
    6
step   73
Ti  1.207  -0.009  -0.500
O  2.481  0.006  0.542
O  -0.020  1.262  0.003
Ti  -1.210  0.010  0.498
O  -2.502  0.027  -0.536
O  0.051  -1.298  -0.001
    6
step   74
Ti  1.205  -0.008  -0.502
O  2.483  0.005  0.543
O  -0.021  1.266  0.002
Ti  -1.210  0.009  0.499
O  -2.500  0.029  -0.536
O  0.052  -1.302  -0.001
    6
step   75
Ti  1.204  -0.007  -0.503
O  2.485  0.005  0.544
O  -0.021  1.269  0.001
Ti  -1.210  0.007  0.500
O  -2.497  0.031  -0.537
O  0.054  -1.306  0.000
    6
step   76
Ti  1.203  -0.006  -0.505
O  2.485  0.005  0.545
O  -0.022  1.273  0.000
Ti  -1.211  0.005  0.502
O  -2.494  0.033  -0.537
O  0.055  -1.310  0.001
    6
step   77
Ti  1.202  -0.005  -0.506
O  2.485  0.005  0.545
O  -0.023  1.277  -0.000
Ti  -1.212  0.003  0.503
O  -2.490  0.035  -0.537
O  0.056  -1.313  0.002
    6
step   78
Ti  1.202  -0.004  -0.507
O  2.485  0.005  0.545
O  -0.023  1.282  -0.001
Ti  -1.213  0.001  0.504
O  -2.486  0.037  -0.537
O  0.056  -1.316  0.003
    6
step   79
Ti  1.202  -0.003  -0.508
O  2.483  0.005  0.544
O  -0.024  1.286  -0.002
Ti  -1.214  -0.001  0.505
O  -2.481  0.039  -0.537
O  0.057  -1.319  0.004
    6
step   80
Ti  1.203  -0.002  -0.509
O  2.482  0.005  0.544
O  -0.025  1.290  -0.003
Ti  -1.215  -0.003  0.506
O  -2.476  0.041  -0.537
O  0.056  -1.322  0.005
    6
step   81
Ti  1.204  -0.000  -0.510
O  2.480  0.005  0.543
O  -0.026  1.294  -0.004
Ti  -1.217  -0.006  0.507
O  -2.471  0.043  -0.537
O  0.056  -1.323  0.006
    6
step   82
Ti  1.205  0.001  -0.511
O  2.478  0.006  0.542
O  -0.026  1.298  -0.005
Ti  -1.218  -0.009  0.508
O  -2.467  0.045  -0.537
O  0.055  -1.325  0.008
    6
step   83
Ti  1.207  0.002  -0.511
O  2.475  0.006  0.540
O  -0.027  1.302  -0.006
Ti  -1.220  -0.011  0.509
O  -2.463  0.047  -0.537
O  0.054  -1.326  0.009
    6
step   84
Ti  1.209  0.003  -0.511
O  2.473  0.006  0.539
O  -0.028  1.305  -0.007
Ti  -1.222  -0.014  0.510
O  -2.459  0.048  -0.537
O  0.052  -1.326  0.010
    6
step   85
Ti  1.211  0.005  -0.512
O  2.472  0.006  0.537
O  -0.029  1.307  -0.008
Ti  -1.223  -0.017  0.511
O  -2.456  0.050  -0.538
O  0.050  -1.326  0.011
    6
step   86
Ti  1.213  0.006  -0.512
O  2.471  0.007  0.536
O  -0.029  1.309  -0.009
Ti  -1.225  -0.020  0.512
O  -2.455  0.051  -0.539
O  0.048  -1.325  0.012
    6
step   87
Ti  1.215  0.007  -0.512
O  2.471  0.007  0.534
O  -0.030  1.310  -0.010
Ti  -1.226  -0.023  0.513
O  -2.454  0.053  -0.539
O  0.046  -1.324  0.013
    6
step   88
Ti  1.217  0.009  -0.512
O  2.471  0.007  0.533
O  -0.031  1.311  -0.011
Ti  -1.227  -0.026  0.514
O  -2.454  0.054  -0.540
O  0.043  -1.322  0.014
    6
step   89
Ti  1.220  0.010  -0.512
O  2.472  0.008  0.532
O  -0.031  1.311  -0.013
Ti  -1.228  -0.028  0.515
O  -2.455  0.056  -0.542
O  0.040  -1.319  0.014
    6
step   90
Ti  1.222  0.011  -0.512
O  2.474  0.008  0.531
O  -0.032  1.310  -0.014
Ti  -1.230  -0.031  0.515
O  -2.457  0.057  -0.543
O  0.037  -1.317  0.015
    6
step   91
Ti  1.225  0.013  -0.512
O  2.476  0.009  0.530
O  -0.032  1.308  -0.015
Ti  -1.231  -0.034  0.516
O  -2.460  0.058  -0.545
O  0.034  -1.313  0.016
    6
step   92
Ti  1.227  0.014  -0.511
O  2.479  0.010  0.529
O  -0.033  1.306  -0.016
Ti  -1.231  -0.036  0.517
O  -2.463  0.059  -0.547
O  0.030  -1.309  0.016
    6
step   93
Ti  1.229  0.016  -0.511
O  2.482  0.010  0.529
O  -0.033  1.303  -0.017
Ti  -1.232  -0.038  0.518
O  -2.466  0.060  -0.548
O  0.026  -1.305  0.017
    6
step   94
Ti  1.232  0.017  -0.511
O  2.485  0.011  0.528
O  -0.033  1.299  -0.018
Ti  -1.233  -0.041  0.518
O  -2.470  0.060  -0.550
O  0.022  -1.301  0.017
    6
step   95
Ti  1.234  0.019  -0.511
O  2.488  0.012  0.528
O  -0.033  1.295  -0.018
Ti  -1.234  -0.043  0.519
O  -2.473  0.061  -0.551
O  0.018  -1.296  0.017
    6
step   96
Ti  1.236  0.020  -0.510
O  2.491  0.013  0.527
O  -0.033  1.290  -0.019
Ti  -1.235  -0.044  0.519
O  -2.476  0.061  -0.552
O  0.014  -1.291  0.017
    6
step   97
Ti  1.238  0.021  -0.510
O  2.493  0.014  0.527
O  -0.032  1.284  -0.020
Ti  -1.235  -0.046  0.520
O  -2.479  0.061  -0.553
O  0.009  -1.286  0.017
    6
step   98
Ti  1.240  0.023  -0.509
O  2.495  0.015  0.526
O  -0.031  1.279  -0.021
Ti  -1.236  -0.047  0.520
O  -2.480  0.060  -0.554
O  0.005  -1.281  0.016
    6
step   99
Ti  1.242  0.024  -0.509
O  2.496  0.016  0.526
O  -0.030  1.273  -0.022
Ti  -1.237  -0.048  0.520
O  -2.481  0.060  -0.554
O  0.001  -1.276  0.015
    6
step  100
Ti  1.243  0.025  -0.509
O  2.497  0.017  0.526
O  -0.029  1.267  -0.022
Ti  -1.238  -0.049  0.521
O  -2.481  0.059  -0.554
O  -0.003  -1.271  0.015
    6
step  101
Ti  1.245  0.025  -0.508
O  2.496  0.018  0.525
O  -0.028  1.261  -0.023
Ti  -1.239  -0.049  0.521
O  -2.480  0.058  -0.553
O  -0.006  -1.267  0.013
    6
step  102
Ti  1.246  0.026  -0.508
O  2.495  0.019  0.525
O  -0.027  1.255  -0.024
Ti  -1.240  -0.049  0.521
O  -2.478  0.057  -0.552
O  -0.010  -1.263  0.012
    6
step  103
Ti  1.248  0.026  -0.508
O  2.494  0.020  0.525
O  -0.025  1.250  -0.024
Ti  -1.241  -0.048  0.521
O  -2.475  0.056  -0.551
O  -0.013  -1.259  0.011
    6
step  104
Ti  1.248  0.026  -0.508
O  2.492  0.021  0.525
O  -0.023  1.244  -0.024
Ti  -1.242  -0.047  0.521
O  -2.472  0.054  -0.550
O  -0.015  -1.256  0.009
    6
step  105
Ti  1.249  0.026  -0.508
O  2.489  0.022  0.525
O  -0.021  1.239  -0.024
Ti  -1.243  -0.046  0.522
O  -2.468  0.053  -0.548
O  -0.017  -1.253  0.008
    6
step  106
Ti  1.250  0.026  -0.509
O  2.486  0.023  0.525
O  -0.019  1.234  -0.024
Ti  -1.245  -0.045  0.522
O  -2.463  0.051  -0.547
O  -0.019  -1.251  0.006
    6
step  107
Ti  1.250  0.025  -0.510
O  2.484  0.024  0.526
O  -0.017  1.229  -0.024
Ti  -1.246  -0.043  0.523
O  -2.459  0.049  -0.545
O  -0.020  -1.249  0.004
    6
step  108
Ti  1.250  0.025  -0.511
O  2.481  0.024  0.527
O  -0.015  1.224  -0.024
Ti  -1.247  -0.041  0.524
O  -2.455  0.047  -0.544
O  -0.020  -1.248  0.002
    6
step  109
Ti  1.249  0.024  -0.512
O  2.479  0.025  0.528
O  -0.014  1.220  -0.024
Ti  -1.247  -0.038  0.525
O  -2.452  0.046  -0.543
O  -0.021  -1.247  0.000
    6
step  110
Ti  1.249  0.022  -0.514
O  2.478  0.026  0.529
O  -0.012  1.217  -0.023
Ti  -1.248  -0.036  0.526
O  -2.449  0.044  -0.542
O  -0.020  -1.247  -0.002
    6
step  111
Ti  1.248  0.021  -0.516
O  2.476  0.027  0.531
O  -0.010  1.214  -0.022
Ti  -1.248  -0.033  0.528
O  -2.446  0.042  -0.541
O  -0.020  -1.247  -0.004
    6
step  112
Ti  1.247  0.019  -0.518
O  2.476  0.028  0.533
O  -0.008  1.211  -0.022
Ti  -1.249  -0.030  0.530
O  -2.445  0.040  -0.541
O  -0.018  -1.248  -0.006
    6
step  113
Ti  1.246  0.017  -0.520
O  2.475  0.029  0.535
O  -0.007  1.210  -0.021
Ti  -1.248  -0.027  0.532
O  -2.444  0.038  -0.541
O  -0.017  -1.249  -0.008
    6
step  114
Ti  1.244  0.015  -0.522
O  2.476  0.029  0.537
O  -0.005  1.209  -0.020
Ti  -1.248  -0.023  0.534
O  -2.444  0.036  -0.541
O  -0.016  -1.251  -0.010
    6
step  115
Ti  1.243  0.013  -0.525
O  2.476  0.030  0.540
O  -0.004  1.208  -0.019
Ti  -1.248  -0.020  0.536
O  -2.445  0.035  -0.542
O  -0.014  -1.253  -0.012
    6
step  116
Ti  1.242  0.011  -0.528
O  2.477  0.031  0.542
O  -0.003  1.209  -0.017
Ti  -1.247  -0.016  0.539
O  -2.446  0.033  -0.543
O  -0.012  -1.255  -0.014
    6
step  117
Ti  1.240  0.008  -0.531
O  2.478  0.031  0.544
O  -0.002  1.210  -0.016
Ti  -1.246  -0.013  0.541
O  -2.447  0.031  -0.544
O  -0.010  -1.258  -0.016
    6
step  118
Ti  1.239  0.005  -0.533
O  2.478  0.032  0.547
O  -0.002  1.212  -0.015
Ti  -1.245  -0.009  0.544
O  -2.449  0.029  -0.546
O  -0.008  -1.261  -0.018
    6
step  119
Ti  1.237  0.002  -0.536
O  2.478  0.032  0.549
O  -0.001  1.214  -0.013
Ti  -1.244  -0.006  0.546
O  -2.451  0.028  -0.547
O  -0.005  -1.264  -0.019
    6
step  120
Ti  1.236  -0.001  -0.538
O  2.478  0.033  0.551
O  -0.001  1.217  -0.012
Ti  -1.243  -0.002  0.549
O  -2.453  0.026  -0.548
O  -0.003  -1.268  -0.021
    6
step  121
Ti  1.235  -0.003  -0.541
O  2.476  0.033  0.552
O  -0.001  1.221  -0.010
Ti  -1.241  0.001  0.551
O  -2.455  0.024  -0.550
O  -0.001  -1.271  -0.023
    6
step  122
Ti  1.234  -0.006  -0.543
O  2.475  0.034  0.553
O  -0.001  1.225  -0.009
Ti  -1.240  0.004  0.553
O  -2.456  0.023  -0.551
O  0.001  -1.275  -0.024
    6
step  123
Ti  1.233  -0.009  -0.545
O  2.472  0.034  0.554
O  -0.001  1.229  -0.007
Ti  -1.238  0.007  0.555
O  -2.456  0.021  -0.552
O  0.003  -1.278  -0.026
    6
step  124
Ti  1.232  -0.012  -0.546
O  2.469  0.034  0.555
O  -0.001  1.234  -0.006
Ti  -1.237  0.010  0.557
O  -2.456  0.019  -0.552
O  0.004  -1.282  -0.027
    6
step  125
Ti  1.231  -0.015  -0.548
O  2.465  0.035  0.555
O  -0.001  1.239  -0.004
Ti  -1.235  0.013  0.558
O  -2.456  0.017  -0.553
O  0.006  -1.285  -0.029
    6
step  126
Ti  1.231  -0.018  -0.549
O  2.460  0.035  0.556
O  -0.001  1.244  -0.003
Ti  -1.234  0.016  0.559
O  -2.455  0.016  -0.553
O  0.007  -1.288  -0.030
    6
step  127
Ti  1.230  -0.021  -0.550
O  2.455  0.035  0.555
O  -0.002  1.250  -0.001
Ti  -1.233  0.018  0.559
O  -2.453  0.014  -0.552
O  0.008  -1.291  -0.031
    6
step  128
Ti  1.230  -0.023  -0.550
O  2.449  0.035  0.555
O  -0.002  1.256  0.000
Ti  -1.231  0.021  0.560
O  -2.452  0.012  -0.552
O  0.009  -1.294  -0.032
    6
step  129
Ti  1.230  -0.026  -0.550
O  2.444  0.035  0.555
O  -0.002  1.261  0.002
Ti  -1.230  0.023  0.559
O  -2.450  0.010  -0.551
O  0.009  -1.297  -0.033
    6
step  130
Ti  1.229  -0.028  -0.550
O  2.438  0.035  0.554
O  -0.002  1.267  0.003
Ti  -1.228  0.025  0.559
O  -2.448  0.007  -0.550
O  0.009  -1.299  -0.034
    6
step  131
Ti  1.229  -0.030  -0.550
O  2.433  0.035  0.554
O  -0.003  1.273  0.005
Ti  -1.227  0.026  0.558
O  -2.446  0.005  -0.548
O  0.008  -1.301  -0.035
    6
step  132
Ti  1.229  -0.032  -0.549
O  2.429  0.035  0.554
O  -0.003  1.278  0.006
Ti  -1.225  0.028  0.557
O  -2.445  0.003  -0.547
O  0.008  -1.302  -0.035
    6
step  133
Ti  1.229  -0.034  -0.549
O  2.426  0.034  0.554
O  -0.003  1.284  0.008
Ti  -1.224  0.029  0.555
O  -2.445  0.000  -0.545
O  0.007  -1.303  -0.035
    6
step  134
Ti  1.229  -0.036  -0.548
O  2.423  0.034  0.554
O  -0.002  1.289  0.009
Ti  -1.222  0.030  0.553
O  -2.445  -0.002  -0.544
O  0.005  -1.304  -0.036
    6
step  135
Ti  1.229  -0.037  -0.547
O  2.421  0.034  0.554
O  -0.002  1.293  0.011
Ti  -1.221  0.031  0.551
O  -2.445  -0.004  -0.542
O  0.003  -1.304  -0.036
    6
step  136
Ti  1.228  -0.038  -0.546
O  2.420  0.034  0.555
O  -0.002  1.298  0.012
Ti  -1.219  0.031  0.549
O  -2.447  -0.007  -0.541
O  0.001  -1.304  -0.035
    6
step  137
Ti  1.228  -0.039  -0.545
O  2.420  0.034  0.555
O  -0.001  1.302  0.014
Ti  -1.218  0.032  0.547
O  -2.448  -0.009  -0.539
O  -0.001  -1.304  -0.035
    6
step  138
Ti  1.227  -0.040  -0.544
O  2.421  0.033  0.556
O  -0.001  1.305  0.015
Ti  -1.216  0.032  0.544
O  -2.451  -0.011  -0.537
O  -0.004  -1.303  -0.034
    6
step  139
Ti  1.226  -0.040  -0.543
O  2.423  0.033  0.558
O  0.000  1.308  0.017
Ti  -1.214  0.031  0.541
O  -2.453  -0.013  -0.536
O  -0.006  -1.301  -0.034
    6
step  140
Ti  1.226  -0.040  -0.541
O  2.425  0.033  0.559
O  0.001  1.310  0.018
Ti  -1.213  0.031  0.538
O  -2.456  -0.016  -0.534
O  -0.009  -1.300  -0.033
    6
step  141
Ti  1.225  -0.040  -0.540
O  2.428  0.032  0.560
O  0.002  1.312  0.019
Ti  -1.211  0.030  0.534
O  -2.459  -0.018  -0.532
O  -0.012  -1.298  -0.032
    6
step  142
Ti  1.224  -0.039  -0.539
O  2.430  0.032  0.562
O  0.004  1.313  0.021
Ti  -1.210  0.030  0.531
O  -2.462  -0.020  -0.529
O  -0.015  -1.296  -0.030
    6
step  143
Ti  1.223  -0.039  -0.537
O  2.433  0.032  0.563
O  0.005  1.313  0.022
Ti  -1.208  0.029  0.527
O  -2.465  -0.022  -0.527
O  -0.018  -1.293  -0.029
    6
step  144
Ti  1.222  -0.038  -0.536
O  2.435  0.031  0.565
O  0.007  1.313  0.023
Ti  -1.207  0.028  0.524
O  -2.467  -0.023  -0.525
O  -0.021  -1.291  -0.028
    6
step  145
Ti  1.222  -0.036  -0.534
O  2.437  0.031  0.566
O  0.009  1.312  0.024
Ti  -1.206  0.026  0.520
O  -2.469  -0.025  -0.522
O  -0.024  -1.288  -0.026
    6
step  146
Ti  1.221  -0.035  -0.532
O  2.439  0.030  0.567
O  0.011  1.311  0.025
Ti  -1.205  0.025  0.516
O  -2.471  -0.027  -0.520
O  -0.027  -1.286  -0.025
    6
step  147
Ti  1.220  -0.033  -0.530
O  2.440  0.030  0.567
O  0.014  1.309  0.026
Ti  -1.204  0.024  0.513
O  -2.472  -0.028  -0.517
O  -0.029  -1.283  -0.023
    6
step  148
Ti  1.219  -0.031  -0.528
O  2.440  0.029  0.567
O  0.016  1.307  0.026
Ti  -1.204  0.023  0.509
O  -2.472  -0.029  -0.514
O  -0.031  -1.281  -0.022
    6
step  149
Ti  1.219  -0.029  -0.526
O  2.439  0.028  0.567
O  0.019  1.304  0.027
Ti  -1.203  0.021  0.505
O  -2.472  -0.031  -0.512
O  -0.033  -1.278  -0.020
    6
step  150
Ti  1.218  -0.027  -0.524
O  2.437  0.028  0.567
O  0.022  1.301  0.027
Ti  -1.203  0.020  0.502
O  -2.472  -0.032  -0.509
O  -0.034  -1.276  -0.018
    6
step  151
Ti  1.218  -0.025  -0.522
O  2.435  0.027  0.566
O  0.025  1.298  0.027
Ti  -1.203  0.019  0.499
O  -2.471  -0.033  -0.507
O  -0.035  -1.274  -0.017
    6
step  152
Ti  1.217  -0.022  -0.520
O  2.432  0.026  0.566
O  0.029  1.295  0.027
Ti  -1.202  0.017  0.496
O  -2.470  -0.034  -0.504
O  -0.035  -1.272  -0.016
    6
step  153
Ti  1.217  -0.019  -0.518
O  2.429  0.025  0.565
O  0.032  1.292  0.027
Ti  -1.202  0.016  0.493
O  -2.469  -0.036  -0.502
O  -0.036  -1.271  -0.014
    6
step  154
Ti  1.217  -0.017  -0.516
O  2.426  0.023  0.563
O  0.035  1.288  0.027
Ti  -1.203  0.015  0.491
O  -2.468  -0.037  -0.501
O  -0.035  -1.270  -0.013
    6
step  155
Ti  1.216  -0.014  -0.514
O  2.423  0.022  0.562
O  0.039  1.285  0.026
Ti  -1.203  0.014  0.489
O  -2.468  -0.038  -0.499
O  -0.035  -1.269  -0.012
    6
step  156
Ti  1.216  -0.011  -0.513
O  2.420  0.020  0.561
O  0.042  1.282  0.025
Ti  -1.203  0.013  0.487
O  -2.468  -0.038  -0.498
O  -0.034  -1.269  -0.011
    6
step  157
Ti  1.216  -0.008  -0.512
O  2.417  0.019  0.560
O  0.045  1.279  0.024
Ti  -1.203  0.012  0.487
O  -2.468  -0.039  -0.498
O  -0.033  -1.269  -0.010
    6
step  158
Ti  1.216  -0.005  -0.511
O  2.415  0.017  0.559
O  0.048  1.276  0.023
Ti  -1.203  0.011  0.486
O  -2.469  -0.040  -0.498
O  -0.031  -1.269  -0.010
    6
step  159
Ti  1.215  -0.003  -0.510
O  2.414  0.015  0.558
O  0.051  1.273  0.022
Ti  -1.203  0.010  0.486
O  -2.471  -0.040  -0.498
O  -0.029  -1.270  -0.009
    6
step  160
Ti  1.215  0.000  -0.510
O  2.413  0.013  0.558
O  0.054  1.272  0.021
Ti  -1.204  0.009  0.487
O  -2.473  -0.041  -0.499
O  -0.027  -1.272  -0.009
    6
step  161
Ti  1.215  0.003  -0.511
O  2.412  0.011  0.558
O  0.056  1.270  0.019
Ti  -1.204  0.008  0.487
O  -2.476  -0.041  -0.500
O  -0.025  -1.273  -0.008
    6
step  162
Ti  1.214  0.005  -0.511
O  2.412  0.009  0.558
O  0.058  1.269  0.017
Ti  -1.204  0.008  0.489
O  -2.479  -0.041  -0.501
O  -0.022  -1.275  -0.008
    6
step  163
Ti  1.214  0.008  -0.512
O  2.413  0.007  0.559
O  0.060  1.268  0.016
Ti  -1.204  0.007  0.491
O  -2.482  -0.041  -0.502
O  -0.019  -1.277  -0.007
    6
step  164
Ti  1.214  0.010  -0.514
O  2.413  0.004  0.560
O  0.061  1.268  0.014
Ti  -1.205  0.006  0.493
O  -2.485  -0.041  -0.504
O  -0.016  -1.280  -0.007
    6
step  165
Ti  1.214  0.012  -0.515
O  2.414  0.002  0.561
O  0.061  1.269  0.012
Ti  -1.205  0.006  0.495
O  -2.488  -0.041  -0.505
O  -0.013  -1.282  -0.007
    6
step  166
Ti  1.214  0.014  -0.517
O  2.415  -0.001  0.562
O  0.061  1.270  0.010
Ti  -1.206  0.005  0.498
O  -2.491  -0.041  -0.507
O  -0.010  -1.285  -0.007
    6
step  167
Ti  1.214  0.016  -0.519
O  2.416  -0.004  0.564
O  0.060  1.271  0.008
Ti  -1.206  0.005  0.500
O  -2.492  -0.040  -0.508
O  -0.007  -1.288  -0.007
    6
step  168
Ti  1.215  0.017  -0.522
O  2.416  -0.006  0.565
O  0.059  1.273  0.006
Ti  -1.207  0.004  0.503
O  -2.493  -0.040  -0.509
O  -0.004  -1.291  -0.006
    6
step  169
Ti  1.215  0.018  -0.525
O  2.417  -0.009  0.567
O  0.057  1.276  0.004
Ti  -1.208  0.003  0.507
O  -2.493  -0.039  -0.510
O  -0.001  -1.293  -0.006
    6
step  170
Ti  1.216  0.019  -0.528
O  2.416  -0.012  0.568
O  0.054  1.279  0.002
Ti  -1.209  0.003  0.510
O  -2.492  -0.038  -0.511
O  0.001  -1.296  -0.006
    6
step  171
Ti  1.217  0.020  -0.530
O  2.415  -0.015  0.570
O  0.051  1.282  0.000
Ti  -1.210  0.002  0.513
O  -2.490  -0.037  -0.512
O  0.004  -1.298  -0.006
    6
step  172
Ti  1.218  0.021  -0.533
O  2.414  -0.017  0.571
O  0.047  1.286  -0.002
Ti  -1.211  0.002  0.516
O  -2.487  -0.036  -0.512
O  0.006  -1.299  -0.006
    6
step  173
Ti  1.219  0.021  -0.536
O  2.412  -0.020  0.573
O  0.043  1.289  -0.004
Ti  -1.212  0.001  0.519
O  -2.484  -0.035  -0.512
O  0.008  -1.301  -0.006
    6
step  174
Ti  1.221  0.022  -0.539
O  2.410  -0.023  0.574
O  0.038  1.293  -0.006
Ti  -1.213  0.000  0.522
O  -2.479  -0.034  -0.511
O  0.009  -1.301  -0.006
    6
step  175
Ti  1.223  0.022  -0.542
O  2.407  -0.026  0.575
O  0.033  1.297  -0.008
Ti  -1.215  -0.001  0.525
O  -2.474  -0.033  -0.511
O  0.011  -1.301  -0.006
    6
step  176
Ti  1.224  0.022  -0.545
O  2.405  -0.028  0.577
O  0.027  1.301  -0.010
Ti  -1.216  -0.002  0.528
O  -2.469  -0.032  -0.511
O  0.011  -1.301  -0.006
    6
step  177
Ti  1.226  0.022  -0.548
O  2.402  -0.031  0.578
O  0.022  1.304  -0.012
Ti  -1.217  -0.003  0.531
O  -2.464  -0.031  -0.510
O  0.012  -1.300  -0.006
    6
step  178
Ti  1.228  0.022  -0.551
O  2.400  -0.033  0.579
O  0.016  1.307  -0.014
Ti  -1.218  -0.004  0.534
O  -2.459  -0.030  -0.509
O  0.012  -1.298  -0.006
    6
step  179
Ti  1.230  0.022  -0.554
O  2.398  -0.036  0.580
O  0.011  1.310  -0.016
Ti  -1.219  -0.005  0.537
O  -2.454  -0.029  -0.509
O  0.012  -1.296  -0.006
    6
step  180
Ti  1.232  0.021  -0.556
O  2.397  -0.038  0.582
O  0.005  1.313  -0.018
Ti  -1.219  -0.006  0.540
O  -2.450  -0.028  -0.509
O  0.012  -1.293  -0.007
    6
step  181
Ti  1.233  0.021  -0.559
O  2.397  -0.040  0.583
O  -0.001  1.314  -0.020