   18
step    0
O  -1.315  -2.245  -0.334
O  -0.793  2.675  0.263
O  2.553  0.286  0.690
Ti  1.636  0.138  -0.918
Ti  -1.775  -0.557  -0.279
Ti  -0.722  2.144  -1.648
O  0.318  0.960  2.740
Ti  0.521  -2.749  -0.079
O  1.404  -1.532  -1.328
O  -2.331  0.384  1.223
O  1.054  1.460  -1.907
Ti  -0.930  1.466  1.489
Ti  1.318  -0.298  1.846
O  0.860  -4.298  -0.269
O  1.020  -1.993  1.687
O  -1.202  3.266  -2.678
O  -1.752  0.483  -1.667
O  0.041  0.122  0.349
   18
step    1
O  -1.314  -2.247  -0.336
O  -0.795  2.673  0.258
O  2.561  0.280  0.691
Ti  1.640  0.136  -0.919
Ti  -1.775  -0.558  -0.275
Ti  -0.723  2.143  -1.646
O  0.313  0.956  2.737
Ti  0.518  -2.747  -0.081
O  1.402  -1.524  -1.331
O  -2.333  0.391  1.221
O  1.056  1.459  -1.903
Ti  -0.930  1.467  1.486
Ti  1.316  -0.298  1.847
O  0.858  -4.291  -0.269
O  1.027  -1.990  1.688
O  -1.203  3.260  -2.675
O  -1.754  0.485  -1.665
O  0.042  0.122  0.348
   18
step    2
O  -1.312  -2.249  -0.337
O  -0.796  2.672  0.254
O  2.569  0.274  0.693
Ti  1.643  0.134  -0.919
Ti  -1.774  -0.560  -0.272
Ti  -0.723  2.141  -1.644
O  0.308  0.952  2.734
Ti  0.514  -2.744  -0.083
O  1.400  -1.518  -1.334
O  -2.335  0.398  1.219
O  1.058  1.457  -1.900
Ti  -0.930  1.469  1.483
Ti  1.315  -0.299  1.849
O  0.857  -4.286  -0.268
O  1.035  -1.988  1.689
O  -1.205  3.255  -2.672
O  -1.757  0.487  -1.664
O  0.044  0.123  0.347
   18
step    3
O  -1.311  -2.251  -0.339
O  -0.798  2.671  0.249
O  2.578  0.269  0.695
Ti  1.647  0.132  -0.919
Ti  -1.773  -0.561  -0.268
Ti  -0.724  2.138  -1.642
O  0.303  0.949  2.732
Ti  0.510  -2.741  -0.084
O  1.398  -1.512  -1.338
O  -2.338  0.405  1.217
O  1.060  1.456  -1.897
Ti  -0.930  1.470  1.481
Ti  1.313  -0.299  1.850
O  0.856  -4.281  -0.268
O  1.042  -1.987  1.690
O  -1.207  3.251  -2.670
O  -1.760  0.489  -1.664
O  0.046  0.123  0.345
   18
step    4
O  -1.310  -2.253  -0.340
O  -0.800  2.671  0.244
O  2.586  0.263  0.697
Ti  1.651  0.130  -0.919
Ti  -1.773  -0.562  -0.265
Ti  -0.724  2.136  -1.640
O  0.297  0.946  2.730
Ti  0.507  -2.738  -0.086
O  1.396  -1.506  -1.342
O  -2.341  0.412  1.215
O  1.062  1.456  -1.894
Ti  -0.930  1.471  1.478
Ti  1.312  -0.298  1.852
O  0.855  -4.278  -0.269
O  1.049  -1.987  1.691
O  -1.210  3.248  -2.669
O  -1.762  0.491  -1.664
O  0.047  0.122  0.344
   18
step    5
O  -1.309  -2.256  -0.342
O  -0.801  2.671  0.239
O  2.595  0.258  0.698
Ti  1.655  0.129  -0.919
Ti  -1.772  -0.563  -0.261
Ti  -0.724  2.133  -1.638
O  0.292  0.943  2.729
Ti  0.503  -2.734  -0.088
O  1.394  -1.502  -1.346
O  -2.344  0.418  1.213
O  1.063  1.455  -1.892
Ti  -0.929  1.473  1.476
Ti  1.311  -0.298  1.853
O  0.854  -4.276  -0.269
O  1.056  -1.988  1.692
O  -1.213  3.245  -2.668
O  -1.765  0.493  -1.664
O  0.049  0.122  0.343
   18
step    6
O  -1.308  -2.260  -0.344
O  -0.803  2.672  0.234
O  2.604  0.253  0.700
Ti  1.659  0.127  -0.918
Ti  -1.772  -0.564  -0.258
Ti  -0.724  2.130  -1.635
O  0.287  0.941  2.729
Ti  0.500  -2.730  -0.089
O  1.392  -1.499  -1.351
O  -2.348  0.425  1.212
O  1.065  1.455  -1.890
Ti  -0.929  1.474  1.473
Ti  1.310  -0.298  1.855
O  0.854  -4.274  -0.269
O  1.063  -1.989  1.692
O  -1.216  3.243  -2.669
O  -1.768  0.495  -1.664
O  0.050  0.122  0.341
   18
step    7
O  -1.308  -2.263  -0.346
O  -0.804  2.674  0.229
O  2.613  0.248  0.703
Ti  1.663  0.126  -0.918
Ti  -1.771  -0.565  -0.254
Ti  -0.724  2.127  -1.633
O  0.282  0.938  2.729
Ti  0.496  -2.726  -0.091
O  1.390  -1.497  -1.356
O  -2.352  0.431  1.210
O  1.066  1.455  -1.889
Ti  -0.929  1.475  1.471
Ti  1.309  -0.298  1.856
O  0.854  -4.274  -0.270
O  1.069  -1.991  1.693
O  -1.220  3.242  -2.670
O  -1.771  0.496  -1.664
O  0.051  0.121  0.340
   18
step    8
O  -1.307  -2.267  -0.348
O  -0.806  2.676  0.224
O  2.621  0.243  0.705
Ti  1.667  0.125  -0.917
Ti  -1.771  -0.565  -0.251
Ti  -0.724  2.123  -1.630
O  0.277  0.937  2.730
Ti  0.493  -2.721  -0.092
O  1.387  -1.496  -1.361
O  -2.357  0.436  1.209
O  1.067  1.456  -1.888
Ti  -0.929  1.477  1.469
Ti  1.309  -0.297  1.858
O  0.855  -4.275  -0.271
O  1.075  -1.994  1.694
O  -1.224  3.241  -2.671
O  -1.775  0.497  -1.664
O  0.051  0.120  0.339
   18
step    9
O  -1.307  -2.270  -0.350
O  -0.807  2.679  0.219
O  2.630  0.238  0.708
Ti  1.672  0.125  -0.916
Ti  -1.771  -0.566  -0.248
Ti  -0.724  2.120  -1.627
O  0.271  0.935  2.731
Ti  0.490  -2.716  -0.094
O  1.385  -1.496  -1.367
O  -2.362  0.442  1.208
O  1.068  1.456  -1.887
Ti  -0.929  1.478  1.466
Ti  1.309  -0.296  1.859
O  0.855  -4.276  -0.272
O  1.081  -1.997  1.694
O  -1.228  3.241  -2.674
O  -1.778  0.498  -1.665
O  0.052  0.119  0.338
   18
step   10
O  -1.308  -2.274  -0.352
O  -0.809  2.682  0.214
O  2.638  0.234  0.710
Ti  1.677  0.124  -0.916
Ti  -1.770  -0.566  -0.245
Ti  -0.723  2.116  -1.624
O  0.266  0.934  2.733
Ti  0.487  -2.712  -0.095
O  1.382  -1.496  -1.373
O  -2.367  0.447  1.207
O  1.069  1.457  -1.887
Ti  -0.929  1.480  1.464
Ti  1.309  -0.296  1.860
O  0.856  -4.277  -0.273
O  1.086  -2.001  1.695
O  -1.233  3.241  -2.676
O  -1.782  0.498  -1.665
O  0.052  0.118  0.337
   18
step   11
O  -1.309  -2.278  -0.354
O  -0.810  2.686  0.210
O  2.645  0.230  0.713
Ti  1.682  0.124  -0.915
Ti  -1.770  -0.567  -0.243
Ti  -0.723  2.113  -1.622
O  0.261  0.933  2.736
Ti  0.485  -2.707  -0.096
O  1.379  -1.498  -1.379
O  -2.373  0.451  1.206
O  1.070  1.458  -1.886
Ti  -0.929  1.481  1.462
Ti  1.309  -0.295  1.861
O  0.856  -4.279  -0.274
O  1.091  -2.005  1.695
O  -1.237  3.241  -2.679
O  -1.785  0.498  -1.665
O  0.052  0.117  0.336
   18
step   12
O  -1.310  -2.282  -0.355
O  -0.812  2.690  0.206
O  2.652  0.225  0.716
Ti  1.687  0.124  -0.914
Ti  -1.770  -0.567  -0.240
Ti  -0.723  2.109  -1.619
O  0.257  0.932  2.739
Ti  0.483  -2.702  -0.097
O  1.375  -1.500  -1.386
O  -2.378  0.455  1.205
O  1.071  1.459  -1.886
Ti  -0.929  1.483  1.460
Ti  1.309  -0.294  1.862
O  0.857  -4.280  -0.275
O  1.096  -2.009  1.695
O  -1.241  3.241  -2.681
O  -1.789  0.497  -1.665
O  0.052  0.116  0.335
   18
step   13
O  -1.312  -2.286  -0.357
O  -0.813  2.695  0.202
O  2.659  0.221  0.720
Ti  1.692  0.124  -0.913
Ti  -1.770  -0.567  -0.238
Ti  -0.722  2.106  -1.617
O  0.252  0.932  2.743
Ti  0.481  -2.697  -0.098
O  1.372  -1.503  -1.392
O  -2.384  0.458  1.204
O  1.072  1.460  -1.886
Ti  -0.929  1.484  1.458
Ti  1.310  -0.294  1.863
O  0.858  -4.282  -0.277
O  1.101  -2.014  1.695
O  -1.245  3.241  -2.684
O  -1.792  0.495  -1.665
O  0.052  0.115  0.335
   18
step   14
O  -1.315  -2.290  -0.359
O  -0.815  2.699  0.198
O  2.665  0.217  0.723
Ti  1.697  0.125  -0.912
Ti  -1.770  -0.567  -0.236
Ti  -0.722  2.102  -1.615
O  0.248  0.931  2.747
Ti  0.479  -2.693  -0.099
O  1.369  -1.506  -1.399
O  -2.390  0.462  1.203
O  1.073  1.461  -1.886
Ti  -0.930  1.486  1.456
Ti  1.311  -0.293  1.864
O  0.858  -4.283  -0.278
O  1.105  -2.018  1.695
O  -1.249  3.241  -2.687
O  -1.796  0.493  -1.664
O  0.052  0.113  0.334
   18
step   15
O  -1.318  -2.294  -0.360
O  -0.816  2.704  0.195
O  2.670  0.213  0.726
Ti  1.702  0.125  -0.911
Ti  -1.770  -0.567  -0.234
Ti  -0.722  2.099  -1.614
O  0.244  0.931  2.752
Ti  0.478  -2.689  -0.100
O  1.365  -1.510  -1.405
O  -2.396  0.465  1.203
O  1.074  1.462  -1.886
Ti  -0.930  1.488  1.455
Ti  1.312  -0.292  1.865
O  0.859  -4.284  -0.279
O  1.109  -2.022  1.695
O  -1.253  3.241  -2.689
O  -1.799  0.491  -1.663
O  0.051  0.112  0.334
   18
step   16
O  -1.321  -2.297  -0.362
O  -0.818  2.710  0.192
O  2.675  0.209  0.730
Ti  1.708  0.126  -0.910
Ti  -1.770  -0.567  -0.233
Ti  -0.722  2.096  -1.612
O  0.239  0.931  2.757
Ti  0.477  -2.685  -0.101
O  1.362  -1.514  -1.412
O  -2.401  0.467  1.202
O  1.076  1.463  -1.886
Ti  -0.931  1.489  1.453
Ti  1.314  -0.292  1.865
O  0.860  -4.284  -0.281
O  1.113  -2.027  1.695
O  -1.256  3.240  -2.691
O  -1.803  0.488  -1.662
O  0.051  0.111  0.334
   18
step   17
O  -1.325  -2.300  -0.363
O  -0.819  2.715  0.189
O  2.679  0.205  0.733
Ti  1.713  0.126  -0.909
Ti  -1.771  -0.566  -0.232
Ti  -0.722  2.094  -1.612
O  0.235  0.931  2.762
Ti  0.476  -2.681  -0.102
O  1.358  -1.517  -1.418
O  -2.407  0.470  1.202
O  1.077  1.464  -1.885
Ti  -0.932  1.491  1.451
Ti  1.315  -0.291  1.866
O  0.860  -4.283  -0.282
O  1.116  -2.030  1.694
O  -1.259  3.238  -2.693
O  -1.807  0.485  -1.660
O  0.050  0.109  0.335
   18
step   18
O  -1.330  -2.303  -0.365
O  -0.820  2.720  0.188
O  2.683  0.201  0.737
Ti  1.719  0.127  -0.908
Ti  -1.771  -0.566  -0.231
Ti  -0.722  2.091  -1.611
O  0.231  0.931  2.767
Ti  0.476  -2.678  -0.103
O  1.355  -1.521  -1.424
O  -2.412  0.472  1.202
O  1.078  1.465  -1.885
Ti  -0.932  1.493  1.449
Ti  1.317  -0.291  1.866
O  0.861  -4.282  -0.283
O  1.120  -2.034  1.694
O  -1.262  3.236  -2.694
O  -1.810  0.481  -1.659
O  0.049  0.108  0.335
   18
step   19
O  -1.335  -2.306  -0.366
O  -0.821  2.725  0.186
O  2.686  0.197  0.740
Ti  1.724  0.127  -0.907
Ti  -1.772  -0.566  -0.230
Ti  -0.722  2.089  -1.611
O  0.227  0.931  2.772
Ti  0.476  -2.675  -0.104
O  1.352  -1.524  -1.430
O  -2.416  0.474  1.202
O  1.080  1.466  -1.884
Ti  -0.933  1.495  1.448
Ti  1.319  -0.291  1.867
O  0.861  -4.279  -0.284
O  1.123  -2.036  1.693
O  -1.265  3.233  -2.694
O  -1.814  0.477  -1.657
O  0.049  0.107  0.336
   18
step   20
O  -1.340  -2.308  -0.366
O  -0.822  2.731  0.186
O  2.688  0.194  0.743
Ti  1.730  0.128  -0.906
Ti  -1.772  -0.565  -0.230
Ti  -0.722  2.087  -1.611
O  0.223  0.931  2.777
Ti  0.476  -2.673  -0.104
O  1.349  -1.527  -1.436
O  -2.421  0.476  1.202
O  1.082  1.466  -1.883
Ti  -0.935  1.496  1.446
Ti  1.320  -0.291  1.867
O  0.861  -4.276  -0.285
O  1.126  -2.039  1.693
O  -1.267  3.230  -2.694
O  -1.817  0.473  -1.655
O  0.048  0.106  0.337
   18
step   21
O  -1.346  -2.310  -0.367
O  -0.823  2.736  0.185
O  2.690  0.190  0.746
Ti  1.735  0.128  -0.906
Ti  -1.773  -0.565  -0.229
Ti  -0.723  2.086  -1.612
O  0.220  0.931  2.782
Ti  0.477  -2.671  -0.105
O  1.346  -1.530  -1.442
O  -2.425  0.478  1.202
O  1.084  1.467  -1.882
Ti  -0.936  1.498  1.445
Ti  1.322  -0.291  1.868
O  0.861  -4.272  -0.286
O  1.128  -2.041  1.692
O  -1.269  3.226  -2.694
O  -1.821  0.468  -1.652
O  0.047  0.106  0.339
   18
step   22
O  -1.353  -2.312  -0.367
O  -0.824  2.741  0.186
O  2.691  0.186  0.749
Ti  1.740  0.129  -0.905
Ti  -1.774  -0.565  -0.229
Ti  -0.724  2.084  -1.613
O  0.216  0.931  2.787
Ti  0.478  -2.670  -0.106
O  1.344  -1.532  -1.447
O  -2.428  0.480  1.202
O  1.087  1.467  -1.881
Ti  -0.937  1.500  1.443
Ti  1.325  -0.291  1.869
O  0.861  -4.268  -0.287
O  1.131  -2.042  1.691
O  -1.270  3.221  -2.693
O  -1.824  0.463  -1.650
O  0.047  0.105  0.340
   18
step   23
O  -1.359  -2.313  -0.368
O  -0.825  2.747  0.187
O  2.691  0.183  0.752
Ti  1.746  0.129  -0.905
Ti  -1.775  -0.565  -0.229
Ti  -0.724  2.083  -1.615
O  0.213  0.931  2.791
Ti  0.479  -2.669  -0.107
O  1.341  -1.533  -1.452
O  -2.431  0.481  1.202
O  1.090  1.467  -1.879
Ti  -0.939  1.502  1.442
Ti  1.327  -0.292  1.869
O  0.861  -4.263  -0.287
O  1.133  -2.043  1.691
O  -1.272  3.216  -2.692
O  -1.828  0.458  -1.648
O  0.047  0.104  0.342
   18
step   24
O  -1.366  -2.313  -0.368
O  -0.825  2.752  0.188
O  2.692  0.180  0.755
Ti  1.751  0.129  -0.905
Ti  -1.776  -0.565  -0.229
Ti  -0.725  2.082  -1.617
O  0.209  0.931  2.795
Ti  0.480  -2.668  -0.108
O  1.339  -1.534  -1.457
O  -2.434  0.483  1.202
O  1.093  1.466  -1.877
Ti  -0.941  1.504  1.441
Ti  1.329  -0.293  1.870
O  0.861  -4.257  -0.288
O  1.135  -2.043  1.690
O  -1.273  3.211  -2.690
O  -1.831  0.453  -1.645
O  0.046  0.104  0.344
   18
step   25
O  -1.374  -2.314  -0.368
O  -0.825  2.757  0.190
O  2.691  0.177  0.757
Ti  1.756  0.129  -0.905
Ti  -1.777  -0.565  -0.230
Ti  -0.726  2.082  -1.619
O  0.207  0.930  2.798
Ti  0.482  -2.667  -0.109
O  1.338  -1.534  -1.462
O  -2.436  0.485  1.202
O  1.096  1.466  -1.875
Ti  -0.942  1.505  1.440
Ti  1.331  -0.293  1.870
O  0.861  -4.251  -0.289
O  1.137  -2.043  1.689
O  -1.274  3.205  -2.688
O  -1.834  0.448  -1.643
O  0.046  0.104  0.346
   18
step   26
O  -1.381  -2.313  -0.367
O  -0.825  2.762  0.192
O  2.690  0.175  0.759
Ti  1.761  0.129  -0.905
Ti  -1.779  -0.565  -0.230
Ti  -0.727  2.081  -1.621
O  0.204  0.930  2.801
Ti  0.484  -2.667  -0.110
O  1.337  -1.533  -1.466
O  -2.438  0.487  1.203
O  1.100  1.465  -1.873
Ti  -0.944  1.507  1.439
Ti  1.333  -0.294  1.871
O  0.860  -4.244  -0.289
O  1.139  -2.042  1.688
O  -1.274  3.199  -2.686
O  -1.838  0.443  -1.640
O  0.046  0.104  0.348
   18
step   27
O  -1.388  -2.313  -0.367
O  -0.825  2.767  0.194
O  2.689  0.172  0.762
Ti  1.766  0.128  -0.906
Ti  -1.780  -0.566  -0.230
Ti  -0.729  2.080  -1.623
O  0.202  0.930  2.804
Ti  0.485  -2.667  -0.111
O  1.336  -1.531  -1.469
O  -2.439  0.489  1.203
O  1.104  1.464  -1.870
Ti  -0.946  1.509  1.439
Ti  1.335  -0.296  1.872
O  0.860  -4.238  -0.290
O  1.140  -2.041  1.686
O  -1.275  3.193  -2.683
O  -1.841  0.437  -1.638
O  0.047  0.104  0.350
   18
step   28
O  -1.396  -2.311  -0.366
O  -0.825  2.772  0.196
O  2.687  0.171  0.763
Ti  1.770  0.128  -0.907
Ti  -1.782  -0.566  -0.230
Ti  -0.730  2.080  -1.626
O  0.200  0.929  2.806
Ti  0.487  -2.667  -0.111
O  1.336  -1.529  -1.472
O  -2.440  0.491  1.204
O  1.108  1.463  -1.867
Ti  -0.948  1.511  1.438
Ti  1.337  -0.297  1.873
O  0.860  -4.232  -0.290
O  1.141  -2.040  1.685
O  -1.275  3.186  -2.681
O  -1.844  0.432  -1.637
O  0.047  0.105  0.352
   18
step   29
O  -1.403  -2.310  -0.365
O  -0.825  2.777  0.199
O  2.685  0.169  0.765
Ti  1.775  0.127  -0.907
Ti  -1.784  -0.567  -0.231
Ti  -0.731  2.079  -1.628
O  0.198  0.929  2.808
Ti  0.489  -2.668  -0.112
O  1.336  -1.526  -1.474
O  -2.440  0.493  1.205
O  1.112  1.462  -1.864
Ti  -0.950  1.512  1.438
Ti  1.339  -0.298  1.874
O  0.860  -4.226  -0.291
O  1.142  -2.038  1.684
O  -1.276  3.180  -2.679
O  -1.847  0.428  -1.635
O  0.048  0.106  0.354
   18
step   30
O  -1.410  -2.308  -0.364
O  -0.824  2.781  0.202
O  2.683  0.168  0.767
Ti  1.779  0.126  -0.909
Ti  -1.786  -0.567  -0.231
Ti  -0.733  2.079  -1.631
O  0.197  0.928  2.809
Ti  0.491  -2.668  -0.113
O  1.337  -1.522  -1.476
O  -2.440  0.495  1.205
O  1.116  1.461  -1.860
Ti  -0.952  1.514  1.437
Ti  1.340  -0.300  1.875
O  0.860  -4.220  -0.292
O  1.142  -2.035  1.682
O  -1.276  3.174  -2.677
O  -1.850  0.423  -1.634
O  0.049  0.106  0.356
   18
step   31
O  -1.417  -2.307  -0.362
O  -0.823  2.785  0.205
O  2.681  0.167  0.768
Ti  1.783  0.124  -0.910
Ti  -1.788  -0.568  -0.231
Ti  -0.734  2.078  -1.633
O  0.196  0.927  2.810
Ti  0.492  -2.668  -0.114
O  1.337  -1.517  -1.478
O  -2.439  0.497  1.206
O  1.121  1.459  -1.857
Ti  -0.954  1.515  1.437
Ti  1.342  -0.301  1.876
O  0.860  -4.215  -0.293
O  1.143  -2.033  1.681
O  -1.276  3.169  -2.675
O  -1.852  0.419  -1.633
O  0.050  0.107  0.358
   18
step   32
O  -1.424  -2.305  -0.361
O  -0.822  2.788  0.208
O  2.679  0.166  0.769
Ti  1.787  0.123  -0.911
Ti  -1.790  -0.569  -0.231
Ti  -0.735  2.078  -1.636
O  0.196  0.926  2.810
Ti  0.494  -2.668  -0.115
O  1.338  -1.513  -1.479
O  -2.438  0.500  1.207
O  1.125  1.458  -1.853
Ti  -0.956  1.517  1.438
Ti  1.343  -0.303  1.877
O  0.860  -4.210  -0.294
O  1.143  -2.030  1.679
O  -1.277  3.163  -2.674
O  -1.855  0.416  -1.633
O  0.051  0.109  0.360
   18
step   33
O  -1.430  -2.302  -0.359
O  -0.821  2.792  0.210
O  2.676  0.166  0.770
Ti  1.790  0.121  -0.913
Ti  -1.792  -0.570  -0.231
Ti  -0.736  2.077  -1.638
O  0.195  0.924  2.810
Ti  0.495  -2.668  -0.116
O  1.340  -1.507  -1.479
O  -2.437  0.502  1.208
O  1.130  1.457  -1.849
Ti  -0.958  1.518  1.438
Ti  1.344  -0.304  1.878
O  0.861  -4.206  -0.295
O  1.142  -2.027  1.677
O  -1.278  3.159  -2.673
O  -1.857  0.413  -1.634
O  0.052  0.110  0.362
   18
step   34
O  -1.436  -2.300  -0.357
O  -0.820  2.794  0.213
O  2.674  0.166  0.770
Ti  1.794  0.120  -0.914
Ti  -1.794  -0.571  -0.231
Ti  -0.738  2.076  -1.640
O  0.196  0.923  2.809
Ti  0.496  -2.667  -0.117
O  1.341  -1.501  -1.479
O  -2.435  0.504  1.209
O  1.134  1.455  -1.845
Ti  -0.960  1.519  1.439
Ti  1.345  -0.306  1.880
O  0.861  -4.203  -0.297
O  1.142  -2.024  1.676
O  -1.279  3.155  -2.673
O  -1.859  0.410  -1.635
O  0.053  0.111  0.363
   18
step   35
O  -1.441  -2.298  -0.355
O  -0.819  2.797  0.216
O  2.671  0.167  0.771
Ti  1.797  0.118  -0.916
Ti  -1.797  -0.572  -0.231
Ti  -0.738  2.075  -1.641
O  0.196  0.922  2.807
Ti  0.497  -2.666  -0.118
O  1.343  -1.495  -1.479
O  -2.433  0.507  1.209
O  1.138  1.454  -1.842
Ti  -0.962  1.521  1.439
Ti  1.346  -0.307  1.881
O  0.862  -4.201  -0.298
O  1.141  -2.022  1.674
O  -1.280  3.151  -2.674
O  -1.861  0.409  -1.637
O  0.054  0.113  0.365
   18
step   36
O  -1.447  -2.296  -0.352
O  -0.817  2.799  0.219
O  2.669  0.168  0.771
Ti  1.801  0.116  -0.918
Ti  -1.799  -0.573  -0.230
Ti  -0.739  2.073  -1.642
O  0.197  0.920  2.806
Ti  0.498  -2.665  -0.119
O  1.345  -1.489  -1.478
O  -2.431  0.509  1.210
O  1.142  1.452  -1.838
Ti  -0.964  1.522  1.440
Ti  1.347  -0.309  1.883
O  0.863  -4.200  -0.300
O  1.139  -2.019  1.672
O  -1.282  3.149  -2.675
O  -1.862  0.407  -1.639
O  0.056  0.114  0.366
   18
step   37
O  -1.451  -2.295  -0.350
O  -0.816  2.800  0.221
O  2.667  0.169  0.771
Ti  1.804  0.114  -0.919
Ti  -1.802  -0.575  -0.230
Ti  -0.740  2.071  -1.643
O  0.199  0.918  2.803
Ti  0.498  -2.664  -0.120
O  1.347  -1.483  -1.477
O  -2.429  0.511  1.211
O  1.146  1.451  -1.835
Ti  -0.966  1.523  1.442
Ti  1.347  -0.310  1.885
O  0.865  -4.200  -0.302
O  1.138  -2.016  1.670
O  -1.284  3.147  -2.677
O  -1.864  0.407  -1.642
O  0.057  0.115  0.367
   18
step   38
O  -1.456  -2.293  -0.347
O  -0.814  2.801  0.223
O  2.665  0.170  0.771
Ti  1.807  0.112  -0.921
Ti  -1.804  -0.576  -0.229
Ti  -0.740  2.069  -1.644
O  0.200  0.916  2.801
Ti  0.499  -2.663  -0.120
O  1.349  -1.476  -1.475
O  -2.426  0.513  1.212
O  1.149  1.450  -1.832
Ti  -0.967  1.524  1.443
Ti  1.348  -0.312  1.887
O  0.867  -4.201  -0.304
O  1.136  -2.014  1.667
O  -1.286  3.145  -2.681
O  -1.864  0.407  -1.645
O  0.058  0.117  0.367
   18
step   39
O  -1.459  -2.292  -0.344
O  -0.812  2.802  0.226
O  2.663  0.172  0.771
Ti  1.809  0.110  -0.923
Ti  -1.807  -0.577  -0.228
Ti  -0.741  2.067  -1.644
O  0.202  0.914  2.797
Ti  0.499  -2.661  -0.121
O  1.351  -1.470  -1.473
O  -2.424  0.515  1.213
O  1.153  1.449  -1.829
Ti  -0.968  1.525  1.445
Ti  1.348  -0.313  1.889
O  0.868  -4.203  -0.307
O  1.134  -2.012  1.665
O  -1.288  3.145  -2.684
O  -1.865  0.407  -1.649
O  0.059  0.118  0.368
   18
step   40
O  -1.462  -2.291  -0.341
O  -0.810  2.802  0.228
O  2.661  0.174  0.770
Ti  1.812  0.108  -0.924
Ti  -1.810  -0.577  -0.227
Ti  -0.741  2.065  -1.644
O  0.205  0.912  2.794
Ti  0.499  -2.659  -0.122
O  1.353  -1.464  -1.471
O  -2.421  0.516  1.214
O  1.156  1.448  -1.826
Ti  -0.970  1.526  1.446
Ti  1.348  -0.314  1.891
O  0.871  -4.205  -0.309
O  1.131  -2.011  1.663
O  -1.291  3.145  -2.689
O  -1.865  0.408  -1.654
O  0.060  0.120  0.368
   18
step   41
O  -1.465  -2.291  -0.338
O  -0.809  2.802  0.230
O  2.659  0.176  0.770
Ti  1.815  0.106  -0.926
Ti  -1.813  -0.578  -0.226
Ti  -0.741  2.062  -1.644
O  0.207  0.910  2.790
Ti  0.498  -2.657  -0.123
O  1.355  -1.459  -1.469
O  -2.419  0.517  1.215
O  1.159  1.448  -1.823
Ti  -0.970  1.527  1.448
Ti  1.347  -0.314  1.893
O  0.873  -4.208  -0.312
O  1.129  -2.010  1.660
O  -1.294  3.146  -2.694
O  -1.865  0.410  -1.659
O  0.061  0.121  0.367
   18
step   42
O  -1.467  -2.290  -0.334
O  -0.807  2.802  0.231
O  2.658  0.179  0.769
Ti  1.818  0.105  -0.927
Ti  -1.816  -0.579  -0.225
Ti  -0.741  2.059  -1.644
O  0.210  0.908  2.786
Ti  0.498  -2.654  -0.124
O  1.357  -1.455  -1.467
O  -2.417  0.518  1.216
O  1.161  1.447  -1.821
Ti  -0.971  1.528  1.450
Ti  1.347  -0.315  1.895
O  0.875  -4.211  -0.315
O  1.126  -2.009  1.658
O  -1.296  3.146  -2.699
O  -1.865  0.411  -1.664
O  0.062  0.122  0.367
   18
step   43
O  -1.468  -2.291  -0.331
O  -0.805  2.801  0.233
O  2.656  0.182  0.768
Ti  1.820  0.103  -0.928
Ti  -1.819  -0.579  -0.224
Ti  -0.740  2.057  -1.643
O  0.213  0.906  2.781
Ti  0.497  -2.652  -0.124
O  1.358  -1.452  -1.464
O  -2.414  0.519  1.217
O  1.163  1.447  -1.819
Ti  -0.972  1.529  1.453
Ti  1.346  -0.315  1.897
O  0.877  -4.214  -0.318
O  1.123  -2.009  1.655
O  -1.299  3.148  -2.705
O  -1.864  0.414  -1.669
O  0.062  0.123  0.366
   18
step   44
O  -1.469  -2.291  -0.327
O  -0.803  2.799  0.234
O  2.654  0.185  0.768
Ti  1.823  0.102  -0.930
Ti  -1.822  -0.579  -0.223
Ti  -0.740  2.054  -1.643
O  0.216  0.904  2.777
Ti  0.497  -2.650  -0.125
O  1.359  -1.449  -1.462
O  -2.412  0.519  1.217
O  1.165  1.448  -1.817
Ti  -0.972  1.530  1.455
Ti  1.345  -0.315  1.899
O  0.880  -4.217  -0.321
O  1.119  -2.010  1.653
O  -1.302  3.149  -2.710
O  -1.863  0.416  -1.674
O  0.062  0.124  0.365
   18
step   45
O  -1.468  -2.292  -0.323
O  -0.801  2.797  0.235
O  2.653  0.188  0.767
Ti  1.826  0.101  -0.930
Ti  -1.825  -0.579  -0.222
Ti  -0.740  2.051  -1.642
O  0.220  0.903  2.772
Ti  0.496  -2.647  -0.126
O  1.360  -1.448  -1.460
O  -2.410  0.519  1.218
O  1.167  1.448  -1.815
Ti  -0.972  1.531  1.457
Ti  1.344  -0.315  1.902
O  0.882  -4.220  -0.325
O  1.115  -2.011  1.650
O  -1.305  3.150  -2.716
O  -1.862  0.419  -1.680
O  0.062  0.125  0.364
   18
step   46
O  -1.468  -2.293  -0.319
O  -0.799  2.795  0.236
O  2.651  0.192  0.767
Ti  1.828  0.100  -0.931
Ti  -1.827  -0.579  -0.221
Ti  -0.739  2.048  -1.641
O  0.223  0.901  2.767
Ti  0.495  -2.645  -0.127
O  1.361  -1.448  -1.457
O  -2.408  0.519  1.219
O  1.168  1.449  -1.813
Ti  -0.972  1.532  1.460
Ti  1.343  -0.315  1.904
O  0.884  -4.223  -0.328
O  1.111  -2.012  1.648
O  -1.307  3.150  -2.721
O  -1.860  0.421  -1.684
O  0.061  0.126  0.362
   18
step   47
O  -1.466  -2.294  -0.315
O  -0.797  2.792  0.237
O  2.650  0.195  0.766
Ti  1.831  0.100  -0.932
Ti  -1.830  -0.579  -0.220
Ti  -0.739  2.046  -1.641
O  0.227  0.900  2.762
Ti  0.494  -2.643  -0.128
O  1.361  -1.449  -1.455
O  -2.407  0.518  1.219
O  1.169  1.451  -1.812
Ti  -0.971  1.533  1.462
Ti  1.342  -0.315  1.906
O  0.886  -4.225  -0.332
O  1.107  -2.014  1.645
O  -1.310  3.151  -2.726
O  -1.858  0.424  -1.689
O  0.061  0.126  0.361
   18
step   48
O  -1.464  -2.296  -0.311
O  -0.796  2.789  0.238
O  2.648  0.199  0.766
Ti  1.833  0.100  -0.932
Ti  -1.833  -0.578  -0.220
Ti  -0.738  2.044  -1.640
O  0.231  0.899  2.757
Ti  0.493  -2.641  -0.129
O  1.361  -1.451  -1.453
O  -2.405  0.517  1.220
O  1.170  1.452  -1.811
Ti  -0.970  1.534  1.465
Ti  1.341  -0.314  1.908
O  0.888  -4.227  -0.335
O  1.102  -2.016  1.643
O  -1.312  3.151  -2.731
O  -1.856  0.426  -1.693
O  0.059  0.126  0.359
   18
step   49
O  -1.462  -2.298  -0.307
O  -0.794  2.786  0.239
O  2.647  0.203  0.766
Ti  1.836  0.100  -0.932
Ti  -1.836  -0.577  -0.219
Ti  -0.738  2.041  -1.640
O  0.235  0.898  2.752
Ti  0.492  -2.640  -0.129
O  1.360  -1.455  -1.451
O  -2.404  0.515  1.220
O  1.170  1.454  -1.810
Ti  -0.969  1.535  1.468
Ti  1.340  -0.313  1.910
O  0.889  -4.228  -0.339
O  1.098  -2.019  1.640
O  -1.313  3.150  -2.734
O  -1.854  0.429  -1.697
O  0.058  0.126  0.356
   18
step   50
O  -1.459  -2.299  -0.303
O  -0.792  2.782  0.239
O  2.645  0.206  0.766
Ti  1.838  0.101  -0.932
Ti  -1.839  -0.576  -0.219
Ti  -0.738  2.040  -1.640
O  0.239  0.898  2.748
Ti  0.491  -2.638  -0.130
O  1.360  -1.459  -1.450
O  -2.403  0.513  1.221
O  1.170  1.456  -1.809
Ti  -0.968  1.536  1.470
Ti  1.339  -0.312  1.911
O  0.891  -4.228  -0.342
O  1.092  -2.022  1.638
O  -1.314  3.149  -2.738
O  -1.851  0.431  -1.701
O  0.056  0.127  0.354
   18
step   51
O  -1.456  -2.301  -0.299
O  -0.791  2.777  0.240
O  2.644  0.210  0.766
Ti  1.841  0.102  -0.932
Ti  -1.842  -0.575  -0.219
Ti  -0.737  2.038  -1.640
O  0.242  0.898  2.744
Ti  0.490  -2.637  -0.131
O  1.359  -1.464  -1.448
O  -2.402  0.511  1.221
O  1.169  1.458  -1.808
Ti  -0.967  1.537  1.473
Ti  1.337  -0.311  1.913
O  0.892  -4.228  -0.346
O  1.087  -2.025  1.635
O  -1.315  3.147  -2.740
O  -1.848  0.433  -1.704
O  0.054  0.126  0.351
   18
step   52
O  -1.452  -2.302  -0.295
O  -0.789  2.773  0.240
O  2.642  0.214  0.766
Ti  1.843  0.103  -0.932
Ti  -1.844  -0.573  -0.219
Ti  -0.737  2.036  -1.640
O  0.246  0.898  2.740
Ti  0.489  -2.637  -0.132
O  1.358  -1.470  -1.447
O  -2.402  0.509  1.222
O  1.169  1.461  -1.807
Ti  -0.965  1.537  1.476
Ti  1.336  -0.310  1.914
O  0.893  -4.227  -0.349
O  1.082  -2.028  1.633
O  -1.316  3.144  -2.742
O  -1.845  0.435  -1.706
O  0.052  0.126  0.349
   18
step   53
O  -1.448  -2.303  -0.291
O  -0.788  2.768  0.240
O  2.640  0.218  0.767
Ti  1.846  0.104  -0.932
Ti  -1.847  -0.572  -0.219
Ti  -0.737  2.035  -1.640
O  0.250  0.899  2.737
Ti  0.487  -2.636  -0.133
O  1.357  -1.476  -1.445
O  -2.401  0.506  1.222
O  1.168  1.463  -1.807
Ti  -0.964  1.538  1.478
Ti  1.335  -0.310  1.915
O  0.894  -4.225  -0.353
O  1.076  -2.031  1.631
O  -1.315  3.141  -2.743
O  -1.842  0.436  -1.708
O  0.049  0.126  0.346
   18
step   54
O  -1.444  -2.304  -0.287
O  -0.787  2.763  0.240
O  2.639  0.222  0.767
Ti  1.848  0.106  -0.932
Ti  -1.849  -0.570  -0.219
Ti  -0.736  2.034  -1.640
O  0.254  0.900  2.735
Ti  0.486  -2.636  -0.134
O  1.356  -1.483  -1.444
O  -2.401  0.503  1.223
O  1.167  1.466  -1.806
Ti  -0.962  1.539  1.481
Ti  1.334  -0.309  1.916
O  0.894  -4.222  -0.356
O  1.070  -2.034  1.629
O  -1.315  3.137  -2.744
O  -1.839  0.437  -1.710
O  0.046  0.125  0.343
   18
step   55
O  -1.440  -2.304  -0.283
O  -0.786  2.758  0.240
O  2.637  0.226  0.768
Ti  1.850  0.108  -0.931
Ti  -1.852  -0.569  -0.220
Ti  -0.736  2.033  -1.641
O  0.257  0.901  2.733
Ti  0.485  -2.636  -0.136
O  1.355  -1.490  -1.443
O  -2.400  0.500  1.224
O  1.166  1.469  -1.806
Ti  -0.960  1.539  1.483
Ti  1.333  -0.308  1.916
O  0.895  -4.219  -0.359
O  1.064  -2.037  1.627
O  -1.314  3.133  -2.744
O  -1.836  0.438  -1.711
O  0.043  0.124  0.341
   18
step   56
O  -1.436  -2.304  -0.279
O  -0.784  2.753  0.240
O  2.635  0.230  0.769
Ti  1.852  0.109  -0.931
Ti  -1.854  -0.567  -0.220
Ti  -0.736  2.033  -1.642
O  0.261  0.903  2.732
Ti  0.484  -2.637  -0.137
O  1.354  -1.497  -1.443
O  -2.400  0.497  1.225
O  1.165  1.472  -1.806
Ti  -0.957  1.540  1.486
Ti  1.332  -0.308  1.916
O  0.895  -4.215  -0.362
O  1.058  -2.039  1.626
O  -1.313  3.128  -2.743
O  -1.833  0.438  -1.712
O  0.040  0.124  0.338
   18
step   57
O  -1.432  -2.304  -0.275
O  -0.783  2.747  0.240
O  2.633  0.235  0.770
Ti  1.853  0.111  -0.931
Ti  -1.856  -0.565  -0.221
Ti  -0.736  2.033  -1.643
O  0.265  0.906  2.732
Ti  0.483  -2.638  -0.138
O  1.353  -1.503  -1.442
O  -2.400  0.494  1.226
O  1.163  1.475  -1.805
Ti  -0.955  1.540  1.488
Ti  1.331  -0.308  1.916
O  0.895  -4.210  -0.365
O  1.052  -2.041  1.625
O  -1.311  3.123  -2.742
O  -1.830  0.439  -1.712
O  0.036  0.123  0.336
   18
step   58
O  -1.428  -2.303  -0.271
O  -0.782  2.742  0.240
O  2.631  0.240  0.771
Ti  1.855  0.113  -0.930
Ti  -1.858  -0.564  -0.222
Ti  -0.735  2.033  -1.644
O  0.268  0.908  2.732
Ti  0.482  -2.639  -0.139
O  1.352  -1.510  -1.441
O  -2.400  0.491  1.227
O  1.162  1.478  -1.805
Ti  -0.953  1.540  1.491
Ti  1.329  -0.308  1.916
O  0.894  -4.206  -0.369
O  1.046  -2.043  1.624
O  -1.309  3.118  -2.741
O  -1.827  0.438  -1.712
O  0.033  0.122  0.333
   18
step   59
O  -1.424  -2.301  -0.266
O  -0.781  2.737  0.240
O  2.630  0.244  0.772
Ti  1.856  0.115  -0.930
Ti  -1.860  -0.562  -0.223
Ti  -0.735  2.033  -1.645
O  0.271  0.912  2.733
Ti  0.481  -2.640  -0.140
O  1.351  -1.516  -1.441
O  -2.400  0.487  1.228
O  1.160  1.481  -1.805
Ti  -0.950  1.540  1.493
Ti  1.328  -0.308  1.915
O  0.894  -4.201  -0.372
O  1.040  -2.045  1.623
O  -1.307  3.112  -2.739
O  -1.823  0.438  -1.711
O  0.030  0.121  0.331
   18
step   60
O  -1.420  -2.299  -0.262
O  -0.780  2.732  0.240
O  2.628  0.249  0.773
Ti  1.857  0.116  -0.930
Ti  -1.861  -0.560  -0.225
Ti  -0.735  2.033  -1.646
O  0.275  0.915  2.735
Ti  0.479  -2.642  -0.142
O  1.351  -1.521  -1.440
O  -2.400  0.484  1.230
O  1.159  1.485  -1.804
Ti  -0.948  1.540  1.495
Ti  1.327  -0.308  1.914
O  0.893  -4.196  -0.375
O  1.034  -2.046  1.623
O  -1.304  3.106  -2.737
O  -1.820  0.437  -1.710
O  0.026  0.120  0.330
   18
step   61
O  -1.416  -2.296  -0.258
O  -0.779  2.727  0.240
O  2.626  0.254  0.774
Ti  1.857  0.118  -0.930
Ti  -1.863  -0.558  -0.226
Ti  -0.735  2.033  -1.647
O  0.278  0.919  2.737
Ti  0.478  -2.644  -0.143
O  1.351  -1.526  -1.439
O  -2.400  0.481  1.231
O  1.158  1.488  -1.804
Ti  -0.945  1.540  1.498
Ti  1.326  -0.309  1.912
O  0.893  -4.191  -0.378
O  1.028  -2.047  1.623
O  -1.302  3.100  -2.735
O  -1.817  0.436  -1.709
O  0.023  0.119  0.328
   18
step   62
O  -1.412  -2.293  -0.253
O  -0.778  2.722  0.240
O  2.624  0.259  0.775
Ti  1.857  0.120  -0.930
Ti  -1.864  -0.557  -0.228
Ti  -0.734  2.033  -1.648
O  0.281  0.923  2.740
Ti  0.476  -2.645  -0.144
O  1.351  -1.530  -1.439
O  -2.399  0.478  1.233
O  1.157  1.491  -1.803
Ti  -0.943  1.539  1.500
Ti  1.325  -0.310  1.911
O  0.892  -4.187  -0.381
O  1.023  -2.047  1.624
O  -1.299  3.094  -2.732
O  -1.813  0.435  -1.707
O  0.020  0.118  0.327
   18
step   63
O  -1.409  -2.289  -0.249
O  -0.777  2.717  0.239
O  2.623  0.265  0.776
Ti  1.857  0.121  -0.930
Ti  -1.865  -0.555  -0.229
Ti  -0.734  2.034  -1.649
O  0.285  0.927  2.743
Ti  0.475  -2.647  -0.146
O  1.352  -1.533  -1.438
O  -2.399  0.474  1.235
O  1.156  1.494  -1.803
Ti  -0.940  1.539  1.502
Ti  1.324  -0.312  1.909
O  0.892  -4.183  -0.384
O  1.017  -2.046  1.625
O  -1.296  3.088  -2.730
O  -1.810  0.433  -1.706
O  0.017  0.117  0.326
   18
step   64
O  -1.406  -2.285  -0.245
O  -0.776  2.712  0.239
O  2.621  0.270  0.777
Ti  1.857  0.122  -0.930
Ti  -1.867  -0.553  -0.231
Ti  -0.733  2.034  -1.650
O  0.288  0.932  2.748
Ti  0.473  -2.649  -0.147
O  1.353  -1.536  -1.438
O  -2.399  0.471  1.237
O  1.155  1.497  -1.802
Ti  -0.938  1.538  1.503
Ti  1.322  -0.313  1.906
O  0.891  -4.180  -0.388
O  1.011  -2.045  1.626
O  -1.294  3.083  -2.729
O  -1.806  0.432  -1.704
O  0.015  0.116  0.325
   18
step   65