   24
step    0
O  0.393  1.124  0.099
Ti  -3.218  0.222  -0.036
O  -0.044  -0.212  2.577
O  0.125  2.812  1.858
Ti  0.675  -2.701  -0.211
O  -0.393  -1.124  -0.099
O  -2.654  -0.989  1.387
Ti  3.218  -0.222  0.036
O  2.654  0.989  -1.387
O  4.792  -0.478  0.042
Ti  -0.943  -1.154  -1.907
O  0.044  0.212  -2.577
O  -4.792  0.478  -0.042
Ti  1.004  1.448  -1.660
O  0.180  3.078  -1.369
O  -0.125  -2.812  -1.858
Ti  0.943  1.154  1.907
O  2.222  -1.906  -0.119
O  2.603  0.741  1.619
Ti  -1.004  -1.448  1.660
O  -0.180  -3.078  1.369
O  -2.603  -0.741  -1.619
Ti  -0.675  2.701  0.211
O  -2.222  1.906  0.119
   24
step    1
O  0.395  1.123  0.098
Ti  -3.218  0.222  -0.038
O  -0.039  -0.216  2.579
O  0.130  2.810  1.859
Ti  0.675  -2.702  -0.209
O  -0.393  -1.126  -0.097
O  -2.657  -0.991  1.385
Ti  3.216  -0.222  0.035
O  2.654  0.993  -1.389
O  4.792  -0.476  0.040
Ti  -0.942  -1.155  -1.906
O  0.044  0.213  -2.581
O  -4.794  0.479  -0.040
Ti  1.004  1.450  -1.661
O  0.185  3.079  -1.368
O  -0.126  -2.815  -1.856
Ti  0.943  1.155  1.908
O  2.223  -1.906  -0.120
O  2.602  0.742  1.620
Ti  -1.003  -1.448  1.663
O  -0.183  -3.078  1.368
O  -2.599  -0.741  -1.620
Ti  -0.678  2.701  0.211
O  -2.224  1.908  0.118
   24
step    2
O  0.396  1.122  0.096
Ti  -3.218  0.221  -0.040
O  -0.035  -0.219  2.581
O  0.135  2.809  1.860
Ti  0.676  -2.704  -0.208
O  -0.393  -1.127  -0.095
O  -2.662  -0.993  1.383
Ti  3.215  -0.221  0.034
O  2.655  0.997  -1.391
O  4.793  -0.474  0.039
Ti  -0.941  -1.155  -1.905
O  0.045  0.214  -2.584
O  -4.797  0.479  -0.039
Ti  1.004  1.452  -1.661
O  0.190  3.081  -1.369
O  -0.127  -2.819  -1.854
Ti  0.943  1.155  1.908
O  2.224  -1.907  -0.120
O  2.601  0.744  1.621
Ti  -1.003  -1.448  1.665
O  -0.186  -3.078  1.367
O  -2.597  -0.740  -1.622
Ti  -0.681  2.701  0.210
O  -2.226  1.910  0.116
   24
step    3
O  0.398  1.120  0.095
Ti  -3.218  0.221  -0.041
O  -0.031  -0.222  2.583
O  0.140  2.808  1.861
Ti  0.676  -2.705  -0.206
O  -0.394  -1.128  -0.093
O  -2.666  -0.995  1.382
Ti  3.212  -0.221  0.032
O  2.656  1.000  -1.392
O  4.795  -0.471  0.037
Ti  -0.940  -1.156  -1.904
O  0.045  0.214  -2.587
O  -4.801  0.480  -0.037
Ti  1.005  1.454  -1.661
O  0.195  3.083  -1.369
O  -0.127  -2.823  -1.853
Ti  0.943  1.155  1.908
O  2.226  -1.907  -0.121
O  2.601  0.745  1.622
Ti  -1.002  -1.449  1.668
O  -0.189  -3.079  1.367
O  -2.595  -0.739  -1.624
Ti  -0.684  2.701  0.210
O  -2.229  1.912  0.114
   24
step    4
O  0.399  1.118  0.093
Ti  -3.217  0.221  -0.043
O  -0.026  -0.226  2.585
O  0.145  2.808  1.862
Ti  0.676  -2.707  -0.204
O  -0.394  -1.128  -0.091
O  -2.671  -0.997  1.380
Ti  3.210  -0.220  0.031
O  2.658  1.004  -1.394
O  4.798  -0.469  0.036
Ti  -0.939  -1.156  -1.903
O  0.046  0.215  -2.591
O  -4.807  0.481  -0.036
Ti  1.005  1.456  -1.662
O  0.200  3.085  -1.369
O  -0.128  -2.828  -1.852
Ti  0.942  1.156  1.909
O  2.228  -1.907  -0.121
O  2.601  0.746  1.623
Ti  -1.002  -1.449  1.670
O  -0.192  -3.080  1.367
O  -2.593  -0.739  -1.626
Ti  -0.686  2.701  0.210
O  -2.232  1.914  0.112
   24
step    5
O  0.400  1.115  0.091
Ti  -3.216  0.220  -0.045
O  -0.022  -0.229  2.588
O  0.150  2.808  1.863
Ti  0.677  -2.708  -0.203
O  -0.394  -1.128  -0.089
O  -2.676  -0.999  1.379
Ti  3.207  -0.220  0.030
O  2.660  1.008  -1.396
O  4.802  -0.468  0.035
Ti  -0.938  -1.157  -1.901
O  0.046  0.216  -2.595
O  -4.813  0.482  -0.035
Ti  1.005  1.458  -1.663
O  0.205  3.088  -1.370
O  -0.129  -2.832  -1.851
Ti  0.942  1.156  1.909
O  2.231  -1.907  -0.122
O  2.602  0.748  1.624
Ti  -1.001  -1.449  1.673
O  -0.195  -3.082  1.367
O  -2.592  -0.738  -1.628
Ti  -0.689  2.701  0.209
O  -2.235  1.915  0.110
   24
step    6
O  0.401  1.113  0.090
Ti  -3.216  0.220  -0.047
O  -0.018  -0.233  2.590
O  0.154  2.808  1.865
Ti  0.677  -2.710  -0.201
O  -0.394  -1.128  -0.087
O  -2.681  -1.001  1.377
Ti  3.205  -0.219  0.028
O  2.663  1.011  -1.398
O  4.806  -0.466  0.033
Ti  -0.936  -1.158  -1.901
O  0.047  0.217  -2.599
O  -4.819  0.483  -0.033
Ti  1.005  1.460  -1.663
O  0.210  3.091  -1.370
O  -0.130  -2.837  -1.850
Ti  0.941  1.156  1.909
O  2.234  -1.907  -0.122
O  2.603  0.749  1.626
Ti  -1.001  -1.449  1.676
O  -0.198  -3.083  1.368
O  -2.591  -0.737  -1.630
Ti  -0.691  2.701  0.209
O  -2.239  1.917  0.108
   24
step    7
O  0.402  1.110  0.088
Ti  -3.215  0.219  -0.048
O  -0.013  -0.237  2.593
O  0.159  2.809  1.867
Ti  0.677  -2.712  -0.200
O  -0.394  -1.128  -0.085
O  -2.685  -1.003  1.376
Ti  3.202  -0.219  0.027
O  2.666  1.015  -1.400
O  4.812  -0.464  0.032
Ti  -0.935  -1.158  -1.900
O  0.047  0.218  -2.602
O  -4.827  0.484  -0.032
Ti  1.006  1.462  -1.664
O  0.214  3.094  -1.371
O  -0.131  -2.841  -1.850
Ti  0.941  1.157  1.910
O  2.236  -1.907  -0.122
O  2.604  0.750  1.627
Ti  -1.001  -1.449  1.678
O  -0.201  -3.085  1.369
O  -2.591  -0.736  -1.632
Ti  -0.693  2.702  0.209
O  -2.244  1.918  0.105
   24
step    8
O  0.402  1.107  0.087
Ti  -3.214  0.219  -0.050
O  -0.009  -0.240  2.596
O  0.163  2.811  1.869
Ti  0.677  -2.714  -0.198
O  -0.394  -1.127  -0.083
O  -2.690  -1.005  1.375
Ti  3.199  -0.218  0.026
O  2.669  1.018  -1.402
O  4.817  -0.463  0.031
Ti  -0.933  -1.159  -1.899
O  0.048  0.219  -2.606
O  -4.834  0.485  -0.031
Ti  1.006  1.463  -1.665
O  0.219  3.098  -1.371
O  -0.132  -2.846  -1.849
Ti  0.941  1.157  1.910
O  2.240  -1.907  -0.123
O  2.606  0.751  1.629
Ti  -1.001  -1.449  1.681
O  -0.205  -3.088  1.370
O  -2.591  -0.735  -1.635
Ti  -0.695  2.702  0.209
O  -2.248  1.920  0.103
   24
step    9
O  0.403  1.104  0.085
Ti  -3.214  0.219  -0.052
O  -0.005  -0.244  2.600
O  0.166  2.812  1.871
Ti  0.677  -2.716  -0.197
O  -0.394  -1.126  -0.081
O  -2.695  -1.007  1.374
Ti  3.197  -0.217  0.025
O  2.673  1.021  -1.404
O  4.823  -0.461  0.029
Ti  -0.931  -1.160  -1.898
O  0.048  0.219  -2.610
O  -4.842  0.486  -0.029
Ti  1.006  1.465  -1.666
O  0.223  3.102  -1.372
O  -0.133  -2.851  -1.849
Ti  0.940  1.157  1.911
O  2.243  -1.907  -0.123
O  2.608  0.752  1.630
Ti  -1.001  -1.449  1.683
O  -0.208  -3.090  1.372
O  -2.591  -0.734  -1.637
Ti  -0.697  2.702  0.208
O  -2.253  1.921  0.101
   24
step   10
O  0.402  1.101  0.084
Ti  -3.213  0.218  -0.053
O  -0.001  -0.247  2.603
O  0.170  2.815  1.872
Ti  0.677  -2.718  -0.195
O  -0.394  -1.125  -0.079
O  -2.699  -1.009  1.373
Ti  3.194  -0.217  0.024
O  2.677  1.024  -1.406
O  4.829  -0.460  0.028
Ti  -0.929  -1.160  -1.898
O  0.049  0.220  -2.614
O  -4.850  0.486  -0.028
Ti  1.006  1.467  -1.667
O  0.227  3.106  -1.372
O  -0.135  -2.856  -1.849
Ti  0.940  1.157  1.912
O  2.246  -1.907  -0.124
O  2.610  0.753  1.631
Ti  -1.001  -1.449  1.686
O  -0.211  -3.093  1.373
O  -2.592  -0.732  -1.639
Ti  -0.698  2.703  0.208
O  -2.258  1.923  0.099
   24
step   11
O  0.402  1.098  0.082
Ti  -3.213  0.218  -0.055
O  0.003  -0.251  2.606
O  0.172  2.817  1.874
Ti  0.677  -2.720  -0.194
O  -0.393  -1.124  -0.077
O  -2.703  -1.011  1.372
Ti  3.192  -0.216  0.023
O  2.681  1.027  -1.408
O  4.836  -0.459  0.026
Ti  -0.927  -1.161  -1.897
O  0.049  0.221  -2.617
O  -4.857  0.487  -0.027
Ti  1.007  1.468  -1.668
O  0.230  3.111  -1.372
O  -0.136  -2.860  -1.849
Ti  0.940  1.157  1.912
O  2.250  -1.908  -0.124
O  2.613  0.754  1.633
Ti  -1.002  -1.450  1.688
O  -0.214  -3.096  1.375
O  -2.594  -0.731  -1.642
Ti  -0.699  2.704  0.208
O  -2.263  1.924  0.096
   24
step   12
O  0.401  1.095  0.081
Ti  -3.214  0.218  -0.056
O  0.007  -0.254  2.610
O  0.175  2.820  1.875
Ti  0.678  -2.722  -0.193
O  -0.393  -1.122  -0.075
O  -2.707  -1.013  1.371
Ti  3.191  -0.216  0.021
O  2.684  1.029  -1.410
O  4.841  -0.458  0.025
Ti  -0.925  -1.162  -1.897
O  0.050  0.222  -2.621
O  -4.864  0.488  -0.025
Ti  1.007  1.470  -1.669
O  0.233  3.116  -1.372
O  -0.137  -2.865  -1.849
Ti  0.940  1.157  1.913
O  2.253  -1.908  -0.125
O  2.616  0.755  1.634
Ti  -1.002  -1.450  1.691
O  -0.217  -3.100  1.378
O  -2.595  -0.730  -1.644
Ti  -0.700  2.704  0.207
O  -2.268  1.925  0.094
   24
step   13
O  0.400  1.093  0.080
Ti  -3.214  0.217  -0.058
O  0.010  -0.257  2.614
O  0.177  2.822  1.877
Ti  0.678  -2.724  -0.192
O  -0.393  -1.121  -0.073
O  -2.710  -1.014  1.370
Ti  3.189  -0.215  0.020
O  2.688  1.032  -1.411
O  4.847  -0.457  0.023
Ti  -0.923  -1.162  -1.897
O  0.050  0.222  -2.624
O  -4.871  0.488  -0.024
Ti  1.007  1.471  -1.670
O  0.236  3.121  -1.371
O  -0.138  -2.870  -1.849
Ti  0.940  1.157  1.914
O  2.256  -1.908  -0.125
O  2.618  0.756  1.636
Ti  -1.003  -1.450  1.693
O  -0.220  -3.103  1.380
O  -2.597  -0.728  -1.646
Ti  -0.701  2.705  0.207
O  -2.272  1.927  0.092
   24
step   14
O  0.398  1.090  0.079
Ti  -3.216  0.217  -0.059
O  0.014  -0.260  2.617
O  0.178  2.825  1.878
Ti  0.678  -2.726  -0.190
O  -0.393  -1.119  -0.072
O  -2.713  -1.016  1.370
Ti  3.189  -0.215  0.019
O  2.692  1.034  -1.413
O  4.852  -0.455  0.022
Ti  -0.921  -1.163  -1.896
O  0.051  0.223  -2.628
O  -4.877  0.488  -0.023
Ti  1.008  1.473  -1.671
O  0.239  3.126  -1.371
O  -0.140  -2.874  -1.849
Ti  0.940  1.157  1.914
O  2.259  -1.909  -0.126
O  2.622  0.757  1.637
Ti  -1.004  -1.451  1.695
O  -0.223  -3.107  1.383
O  -2.598  -0.726  -1.649
Ti  -0.701  2.706  0.207
O  -2.277  1.929  0.089
   24
step   15
O  0.396  1.088  0.078
Ti  -3.217  0.217  -0.061
O  0.017  -0.263  2.621
O  0.179  2.828  1.878
Ti  0.678  -2.728  -0.189
O  -0.392  -1.118  -0.070
O  -2.716  -1.017  1.369
Ti  3.188  -0.214  0.018
O  2.696  1.036  -1.414
O  4.856  -0.454  0.020
Ti  -0.918  -1.164  -1.896
O  0.052  0.223  -2.631
O  -4.882  0.488  -0.022
Ti  1.009  1.474  -1.673
O  0.242  3.131  -1.370
O  -0.141  -2.879  -1.849
Ti  0.940  1.157  1.915
O  2.261  -1.909  -0.127
O  2.625  0.758  1.638
Ti  -1.005  -1.451  1.698
O  -0.226  -3.111  1.386
O  -2.600  -0.725  -1.651
Ti  -0.701  2.707  0.207
O  -2.281  1.930  0.087
   24
step   16
O  0.394  1.087  0.078
Ti  -3.219  0.217  -0.062
O  0.020  -0.266  2.625
O  0.179  2.832  1.879
Ti  0.678  -2.730  -0.188
O  -0.392  -1.116  -0.069
O  -2.718  -1.018  1.369
Ti  3.188  -0.214  0.017
O  2.700  1.038  -1.415
O  4.859  -0.453  0.018
Ti  -0.916  -1.164  -1.896
O  0.052  0.224  -2.634
O  -4.886  0.488  -0.020
Ti  1.009  1.475  -1.674
O  0.244  3.136  -1.368
O  -0.142  -2.883  -1.849
Ti  0.940  1.156  1.916
O  2.264  -1.910  -0.128
O  2.628  0.759  1.640
Ti  -1.007  -1.452  1.700
O  -0.229  -3.115  1.389
O  -2.602  -0.723  -1.654
Ti  -0.701  2.707  0.207
O  -2.285  1.932  0.084
   24
step   17
O  0.392  1.085  0.077
Ti  -3.222  0.217  -0.063
O  0.022  -0.269  2.629
O  0.179  2.835  1.879
Ti  0.678  -2.732  -0.187
O  -0.391  -1.115  -0.068
O  -2.720  -1.019  1.368
Ti  3.189  -0.213  0.016
O  2.703  1.040  -1.417
O  4.862  -0.451  0.016
Ti  -0.914  -1.165  -1.896
O  0.053  0.224  -2.637
O  -4.889  0.487  -0.019
Ti  1.010  1.477  -1.676
O  0.245  3.141  -1.367
O  -0.144  -2.887  -1.849
Ti  0.940  1.156  1.917
O  2.266  -1.911  -0.128
O  2.631  0.760  1.641
Ti  -1.008  -1.453  1.702
O  -0.233  -3.119  1.392
O  -2.603  -0.721  -1.656
Ti  -0.701  2.708  0.207
O  -2.289  1.934  0.082
   24
step   18
O  0.389  1.084  0.077
Ti  -3.225  0.217  -0.064
O  0.025  -0.272  2.633
O  0.179  2.838  1.879
Ti  0.678  -2.735  -0.186
O  -0.391  -1.114  -0.067
O  -2.721  -1.020  1.368
Ti  3.190  -0.212  0.015
O  2.706  1.041  -1.418
O  4.863  -0.450  0.015
Ti  -0.912  -1.165  -1.897
O  0.054  0.224  -2.640
O  -4.892  0.487  -0.018
Ti  1.011  1.478  -1.677
O  0.247  3.146  -1.364
O  -0.145  -2.891  -1.849
Ti  0.941  1.155  1.918
O  2.267  -1.912  -0.129
O  2.634  0.762  1.642
Ti  -1.010  -1.453  1.704
O  -0.236  -3.123  1.395
O  -2.604  -0.719  -1.658
Ti  -0.701  2.709  0.206
O  -2.292  1.936  0.080
   24
step   19
O  0.387  1.084  0.077
Ti  -3.229  0.217  -0.065
O  0.027  -0.275  2.637
O  0.178  2.841  1.878
Ti  0.678  -2.737  -0.186
O  -0.390  -1.112  -0.067
O  -2.722  -1.021  1.368
Ti  3.192  -0.212  0.014
O  2.709  1.043  -1.419
O  4.864  -0.448  0.013
Ti  -0.910  -1.165  -1.897
O  0.054  0.224  -2.643
O  -4.894  0.486  -0.017
Ti  1.012  1.479  -1.679
O  0.248  3.150  -1.362
O  -0.147  -2.894  -1.849
Ti  0.942  1.155  1.918
O  2.268  -1.913  -0.131
O  2.637  0.763  1.643
Ti  -1.012  -1.454  1.707
O  -0.239  -3.126  1.398
O  -2.605  -0.718  -1.661
Ti  -0.700  2.710  0.206
O  -2.295  1.939  0.077
   24
step   20
O  0.384  1.084  0.077
Ti  -3.233  0.217  -0.066
O  0.029  -0.277  2.641
O  0.176  2.843  1.877
Ti  0.678  -2.739  -0.185
O  -0.390  -1.111  -0.066
O  -2.723  -1.021  1.368
Ti  3.195  -0.211  0.013
O  2.712  1.045  -1.420
O  4.864  -0.446  0.011
Ti  -0.908  -1.166  -1.897
O  0.055  0.225  -2.645
O  -4.896  0.485  -0.016
Ti  1.013  1.480  -1.680
O  0.249  3.154  -1.359
O  -0.148  -2.897  -1.848
Ti  0.943  1.154  1.919
O  2.268  -1.915  -0.132
O  2.640  0.764  1.644
Ti  -1.014  -1.455  1.709
O  -0.242  -3.130  1.401
O  -2.606  -0.716  -1.663
Ti  -0.700  2.711  0.206
O  -2.297  1.941  0.075
   24
step   21
O  0.382  1.084  0.077
Ti  -3.238  0.217  -0.067
O  0.031  -0.280  2.645
O  0.174  2.846  1.876
Ti  0.679  -2.741  -0.184
O  -0.389  -1.111  -0.066
O  -2.722  -1.021  1.368
Ti  3.198  -0.211  0.012
O  2.714  1.046  -1.420
O  4.863  -0.444  0.009
Ti  -0.906  -1.166  -1.897
O  0.056  0.225  -2.647
O  -4.897  0.484  -0.015
Ti  1.015  1.481  -1.682
O  0.250  3.158  -1.356
O  -0.149  -2.900  -1.847
Ti  0.943  1.153  1.920
O  2.268  -1.917  -0.133
O  2.643  0.765  1.644
Ti  -1.017  -1.456  1.711
O  -0.245  -3.133  1.404
O  -2.607  -0.714  -1.665
Ti  -0.699  2.712  0.206
O  -2.299  1.944  0.073
   24
step   22
O  0.379  1.085  0.077
Ti  -3.243  0.217  -0.068
O  0.032  -0.282  2.649
O  0.172  2.848  1.874
Ti  0.679  -2.743  -0.183
O  -0.388  -1.110  -0.066
O  -2.722  -1.022  1.368
Ti  3.201  -0.210  0.011
O  2.716  1.048  -1.421
O  4.861  -0.442  0.007
Ti  -0.904  -1.166  -1.898
O  0.057  0.225  -2.649
O  -4.897  0.483  -0.014
Ti  1.016  1.482  -1.684
O  0.250  3.162  -1.353
O  -0.151  -2.902  -1.846
Ti  0.945  1.152  1.921
O  2.268  -1.919  -0.134
O  2.646  0.766  1.645
Ti  -1.019  -1.457  1.712
O  -0.248  -3.136  1.407
O  -2.607  -0.713  -1.668
Ti  -0.698  2.712  0.206
O  -2.301  1.947  0.071
   24
step   23
O  0.376  1.086  0.078
Ti  -3.248  0.218  -0.069
O  0.034  -0.285  2.653
O  0.170  2.850  1.872
Ti  0.679  -2.745  -0.182
O  -0.387  -1.110  -0.066
O  -2.721  -1.022  1.369
Ti  3.205  -0.210  0.010
O  2.718  1.049  -1.422
O  4.859  -0.440  0.005
Ti  -0.903  -1.166  -1.898
O  0.058  0.224  -2.651
O  -4.897  0.481  -0.013
Ti  1.018  1.483  -1.685
O  0.250  3.165  -1.350
O  -0.152  -2.904  -1.845
Ti  0.946  1.151  1.921
O  2.267  -1.921  -0.136
O  2.649  0.767  1.645
Ti  -1.021  -1.458  1.714
O  -0.250  -3.139  1.409
O  -2.606  -0.711  -1.670
Ti  -0.697  2.713  0.206
O  -2.302  1.949  0.069
   24
step   24
O  0.374  1.087  0.078
Ti  -3.254  0.218  -0.070
O  0.035  -0.287  2.657
O  0.168  2.852  1.870
Ti  0.679  -2.747  -0.181
O  -0.387  -1.110  -0.067
O  -2.719  -1.021  1.369
Ti  3.209  -0.209  0.009
O  2.719  1.051  -1.422
O  4.856  -0.437  0.003
Ti  -0.901  -1.167  -1.899
O  0.060  0.224  -2.653
O  -4.896  0.480  -0.013
Ti  1.019  1.484  -1.687
O  0.250  3.168  -1.346
O  -0.153  -2.906  -1.843
Ti  0.947  1.151  1.922
O  2.265  -1.923  -0.137
O  2.651  0.768  1.646
Ti  -1.024  -1.460  1.716
O  -0.253  -3.141  1.412
O  -2.606  -0.710  -1.672
Ti  -0.695  2.714  0.206
O  -2.303  1.952  0.067
   24
step   25
O  0.371  1.089  0.079
Ti  -3.260  0.218  -0.070
O  0.037  -0.289  2.660
O  0.165  2.854  1.868
Ti  0.678  -2.749  -0.180
O  -0.386  -1.110  -0.067
O  -2.718  -1.021  1.370
Ti  3.214  -0.209  0.008
O  2.720  1.052  -1.423
O  4.853  -0.435  0.002
Ti  -0.900  -1.167  -1.899
O  0.061  0.224  -2.654
O  -4.896  0.478  -0.012
Ti  1.021  1.485  -1.689
O  0.250  3.170  -1.342
O  -0.155  -2.907  -1.842
Ti  0.948  1.150  1.923
O  2.264  -1.925  -0.139
O  2.653  0.768  1.646
Ti  -1.027  -1.461  1.718
O  -0.256  -3.143  1.414
O  -2.605  -0.708  -1.674
Ti  -0.694  2.715  0.205
O  -2.304  1.955  0.065
   24
step   26
O  0.369  1.091  0.079
Ti  -3.266  0.219  -0.071
O  0.038  -0.291  2.664
O  0.162  2.855  1.865
Ti  0.678  -2.751  -0.179
O  -0.385  -1.111  -0.067
O  -2.716  -1.020  1.370
Ti  3.219  -0.208  0.007
O  2.721  1.054  -1.423
O  4.849  -0.432  -0.000
Ti  -0.898  -1.167  -1.900
O  0.063  0.224  -2.655
O  -4.895  0.477  -0.012
Ti  1.022  1.486  -1.690
O  0.250  3.173  -1.338
O  -0.156  -2.908  -1.840
Ti  0.950  1.148  1.923
O  2.261  -1.928  -0.140
O  2.655  0.769  1.646
Ti  -1.029  -1.462  1.719
O  -0.258  -3.144  1.416
O  -2.603  -0.707  -1.676
Ti  -0.693  2.716  0.205
O  -2.304  1.958  0.063
   24
step   27
O  0.366  1.094  0.080
Ti  -3.272  0.219  -0.071
O  0.039  -0.293  2.667
O  0.159  2.856  1.862
Ti  0.678  -2.753  -0.178
O  -0.384  -1.112  -0.068
O  -2.713  -1.020  1.371
Ti  3.224  -0.208  0.006
O  2.721  1.055  -1.423
O  4.846  -0.429  -0.002
Ti  -0.897  -1.167  -1.900
O  0.064  0.224  -2.655
O  -4.894  0.475  -0.011
Ti  1.024  1.486  -1.692
O  0.250  3.175  -1.334
O  -0.157  -2.908  -1.837
Ti  0.952  1.147  1.924
O  2.259  -1.930  -0.142
O  2.657  0.770  1.646
Ti  -1.032  -1.464  1.721
O  -0.260  -3.146  1.418
O  -2.601  -0.706  -1.677
Ti  -0.691  2.716  0.205
O  -2.305  1.961  0.062
   24
step   28
O  0.364  1.096  0.080
Ti  -3.278  0.219  -0.072
O  0.040  -0.294  2.669
O  0.156  2.857  1.860
Ti  0.678  -2.755  -0.177
O  -0.383  -1.113  -0.069
O  -2.711  -1.019  1.372
Ti  3.229  -0.207  0.006
O  2.721  1.057  -1.423
O  4.843  -0.427  -0.003
Ti  -0.896  -1.167  -1.901
O  0.066  0.224  -2.655
O  -4.894  0.473  -0.011
Ti  1.026  1.487  -1.694
O  0.250  3.176  -1.329
O  -0.158  -2.908  -1.835
Ti  0.953  1.146  1.925
O  2.256  -1.933  -0.143
O  2.658  0.770  1.645
Ti  -1.035  -1.465  1.722
O  -0.262  -3.146  1.420
O  -2.599  -0.704  -1.679
Ti  -0.690  2.717  0.205
O  -2.305  1.964  0.060
   24
step   29
O  0.362  1.099  0.081
Ti  -3.285  0.220  -0.072
O  0.041  -0.296  2.672
O  0.153  2.858  1.857
Ti  0.677  -2.756  -0.176
O  -0.382  -1.115  -0.069
O  -2.708  -1.018  1.373
Ti  3.234  -0.207  0.005
O  2.721  1.058  -1.423
O  4.840  -0.424  -0.005
Ti  -0.896  -1.167  -1.901
O  0.068  0.223  -2.655
O  -4.894  0.471  -0.011
Ti  1.027  1.488  -1.695
O  0.249  3.177  -1.325
O  -0.159  -2.908  -1.832
Ti  0.955  1.145  1.925
O  2.253  -1.935  -0.145
O  2.659  0.771  1.645
Ti  -1.037  -1.467  1.724
O  -0.264  -3.147  1.421
O  -2.597  -0.703  -1.681
Ti  -0.688  2.718  0.205
O  -2.305  1.967  0.059
   24
step   30
O  0.361  1.102  0.082
Ti  -3.291  0.220  -0.073
O  0.042  -0.297  2.674
O  0.151  2.858  1.854
Ti  0.677  -2.758  -0.175
O  -0.382  -1.117  -0.070
O  -2.705  -1.016  1.373
Ti  3.239  -0.206  0.004
O  2.720  1.059  -1.423
O  4.838  -0.422  -0.006
Ti  -0.895  -1.167  -1.902
O  0.071  0.223  -2.655
O  -4.895  0.469  -0.011
Ti  1.029  1.489  -1.697
O  0.249  3.178  -1.322
O  -0.160  -2.907  -1.830
Ti  0.956  1.144  1.926
O  2.250  -1.938  -0.147
O  2.660  0.771  1.644
Ti  -1.040  -1.468  1.725
O  -0.266  -3.146  1.422
O  -2.594  -0.702  -1.682
Ti  -0.687  2.718  0.205
O  -2.305  1.969  0.058
   24
step   31
O  0.359  1.105  0.082
Ti  -3.297  0.221  -0.073
O  0.043  -0.298  2.675
O  0.148  2.858  1.852
Ti  0.676  -2.760  -0.173
O  -0.381  -1.119  -0.071
O  -2.702  -1.015  1.374
Ti  3.244  -0.205  0.003
O  2.720  1.061  -1.423
O  4.837  -0.420  -0.008
Ti  -0.895  -1.167  -1.902
O  0.073  0.223  -2.654
O  -4.896  0.467  -0.010
Ti  1.030  1.489  -1.699
O  0.249  3.179  -1.318
O  -0.161  -2.906  -1.827
Ti  0.958  1.143  1.926
O  2.247  -1.940  -0.148
O  2.661  0.771  1.643
Ti  -1.042  -1.470  1.726
O  -0.268  -3.146  1.422
O  -2.591  -0.701  -1.684
Ti  -0.686  2.719  0.204
O  -2.305  1.972  0.057
   24
step   32
O  0.358  1.108  0.083
Ti  -3.303  0.222  -0.073
O  0.044  -0.299  2.676
O  0.145  2.857  1.849
Ti  0.675  -2.761  -0.172
O  -0.380  -1.121  -0.072
O  -2.699  -1.013  1.375
Ti  3.248  -0.205  0.002
O  2.719  1.062  -1.423
O  4.837  -0.418  -0.009
Ti  -0.894  -1.167  -1.902
O  0.076  0.223  -2.653
O  -4.898  0.465  -0.010
Ti  1.032  1.490  -1.700
O  0.249  3.179  -1.315
O  -0.162  -2.905  -1.823
Ti  0.960  1.142  1.926
O  2.244  -1.943  -0.150
O  2.661  0.771  1.642
Ti  -1.045  -1.472  1.727
O  -0.269  -3.145  1.423
O  -2.588  -0.700  -1.685
Ti  -0.684  2.720  0.204
O  -2.304  1.974  0.056
   24
step   33
O  0.356  1.111  0.083
Ti  -3.308  0.222  -0.073
O  0.045  -0.300  2.677
O  0.143  2.857  1.847
Ti  0.674  -2.763  -0.171
O  -0.380  -1.124  -0.072
O  -2.696  -1.011  1.376
Ti  3.253  -0.204  0.001
O  2.718  1.063  -1.423
O  4.838  -0.416  -0.011
Ti  -0.894  -1.167  -1.903
O  0.079  0.223  -2.652
O  -4.901  0.463  -0.010
Ti  1.033  1.491  -1.701
O  0.249  3.179  -1.312
O  -0.163  -2.903  -1.820
Ti  0.961  1.141  1.927
O  2.241  -1.945  -0.151
O  2.661  0.771  1.641
Ti  -1.047  -1.473  1.728
O  -0.270  -3.144  1.423
O  -2.584  -0.699  -1.686
Ti  -0.683  2.720  0.204
O  -2.304  1.976  0.055
   24
step   34
O  0.355  1.113  0.084
Ti  -3.313  0.223  -0.073
O  0.046  -0.301  2.677
O  0.140  2.856  1.845
Ti  0.673  -2.764  -0.170
O  -0.379  -1.127  -0.073
O  -2.694  -1.008  1.377
Ti  3.257  -0.203  0.001
O  2.717  1.064  -1.422
O  4.841  -0.414  -0.012
Ti  -0.894  -1.167  -1.903
O  0.082  0.223  -2.651
O  -4.906  0.460  -0.010
Ti  1.034  1.491  -1.703
O  0.250  3.179  -1.309
O  -0.164  -2.902  -1.817
Ti  0.963  1.140  1.927
O  2.238  -1.947  -0.153
O  2.661  0.770  1.639
Ti  -1.049  -1.475  1.729
O  -0.272  -3.143  1.423
O  -2.581  -0.698  -1.687
Ti  -0.682  2.721  0.204
O  -2.304  1.978  0.055
   24
step   35
O  0.354  1.116  0.084
Ti  -3.318  0.224  -0.074
O  0.047  -0.301  2.677
O  0.138  2.854  1.844
Ti  0.672  -2.766  -0.168
O  -0.379  -1.130  -0.073
O  -2.691  -1.006  1.378
Ti  3.261  -0.202  -0.000
O  2.715  1.065  -1.422
O  4.845  -0.413  -0.013
Ti  -0.893  -1.166  -1.904
O  0.085  0.222  -2.649
O  -4.911  0.458  -0.011
Ti  1.036  1.492  -1.704
O  0.250  3.178  -1.307
O  -0.165  -2.900  -1.813
Ti  0.964  1.138  1.927
O  2.235  -1.949  -0.154
O  2.661  0.770  1.638
Ti  -1.050  -1.477  1.730
O  -0.273  -3.141  1.422
O  -2.578  -0.697  -1.688
Ti  -0.681  2.722  0.204
O  -2.304  1.979  0.054
   24
step   36
O  0.354  1.119  0.084
Ti  -3.323  0.224  -0.074
O  0.048  -0.301  2.676
O  0.136  2.852  1.843
Ti  0.671  -2.767  -0.167
O  -0.378  -1.133  -0.074
O  -2.689  -1.003  1.378
Ti  3.264  -0.201  -0.001
O  2.714  1.065  -1.421
O  4.850  -0.412  -0.014
Ti  -0.893  -1.166  -1.904
O  0.089  0.223  -2.647
O  -4.917  0.456  -0.011
Ti  1.037  1.493  -1.705
O  0.251  3.178  -1.306
O  -0.166  -2.898  -1.810
Ti  0.965  1.137  1.927
O  2.233  -1.951  -0.155
O  2.660  0.769  1.636
Ti  -1.052  -1.479  1.731
O  -0.273  -3.139  1.422
O  -2.574  -0.696  -1.689
Ti  -0.680  2.722  0.204
O  -2.304  1.980  0.054
   24
step   37
O  0.354  1.121  0.084
Ti  -3.327  0.225  -0.074
O  0.049  -0.301  2.675
O  0.134  2.850  1.842
Ti  0.670  -2.768  -0.166
O  -0.378  -1.137  -0.074
O  -2.687  -0.999  1.379
Ti  3.267  -0.200  -0.002
O  2.713  1.066  -1.420
O  4.856  -0.410  -0.016
Ti  -0.893  -1.166  -1.904
O  0.092  0.223  -2.645
O  -4.925  0.453  -0.011
Ti  1.038  1.494  -1.706
O  0.252  3.177  -1.304
O  -0.166  -2.895  -1.807
Ti  0.967  1.136  1.927
O  2.230  -1.953  -0.156
O  2.660  0.768  1.634
Ti  -1.053  -1.480  1.731
O  -0.274  -3.137  1.421
O  -2.571  -0.695  -1.689
Ti  -0.679  2.723  0.204
O  -2.304  1.980  0.054
   24
step   38
O  0.354  1.123  0.085
Ti  -3.331  0.226  -0.074
O  0.050  -0.301  2.674
O  0.132  2.848  1.841
Ti  0.668  -2.769  -0.165
O  -0.378  -1.141  -0.074
O  -2.685  -0.996  1.380
Ti  3.270  -0.199  -0.003
O  2.712  1.066  -1.419
O  4.864  -0.409  -0.017
Ti  -0.893  -1.165  -1.904
O  0.096  0.223  -2.643
O  -4.933  0.451  -0.012
Ti  1.038  1.495  -1.707
O  0.253  3.176  -1.304
O  -0.167  -2.893  -1.803
Ti  0.968  1.135  1.927
O  2.229  -1.954  -0.157
O  2.659  0.767  1.632
Ti  -1.054  -1.482  1.732
O  -0.275  -3.135  1.420
O  -2.569  -0.694  -1.690
Ti  -0.678  2.723  0.204
O  -2.304  1.980  0.054
   24
step   39
O  0.354  1.125  0.085
Ti  -3.334  0.227  -0.074
O  0.050  -0.301  2.672
O  0.130  2.845  1.841
Ti  0.666  -2.771  -0.163
O  -0.378  -1.144  -0.074
O  -2.683  -0.992  1.380
Ti  3.272  -0.198  -0.003
O  2.710  1.066  -1.417
O  4.872  -0.408  -0.018
Ti  -0.893  -1.165  -1.905
O  0.099  0.223  -2.641
O  -4.942  0.448  -0.012
Ti  1.039  1.496  -1.708
O  0.254  3.175  -1.304
O  -0.168  -2.891  -1.800
Ti  0.969  1.134  1.927
O  2.227  -1.955  -0.158
O  2.659  0.765  1.630
Ti  -1.054  -1.484  1.733
O  -0.275  -3.133  1.420
O  -2.566  -0.693  -1.690
Ti  -0.678  2.724  0.204
O  -2.305  1.980  0.054
   24
step   40
O  0.354  1.126  0.085
Ti  -3.337  0.228  -0.074
O  0.051  -0.301  2.669
O  0.128  2.842  1.842
Ti  0.665  -2.772  -0.162
O  -0.378  -1.148  -0.073
O  -2.682  -0.988  1.380
Ti  3.274  -0.197  -0.004
O  2.709  1.066  -1.416
O  4.882  -0.407  -0.019
Ti  -0.893  -1.164  -1.905
O  0.103  0.223  -2.639
O  -4.951  0.445  -0.013
Ti  1.040  1.497  -1.709
O  0.256  3.173  -1.304
O  -0.169  -2.889  -1.797
Ti  0.969  1.133  1.927
O  2.227  -1.956  -0.159
O  2.659  0.764  1.627
Ti  -1.055  -1.485  1.733
O  -0.276  -3.131  1.419
O  -2.564  -0.691  -1.690
Ti  -0.677  2.724  0.204
O  -2.306  1.979  0.055
   24
step   41
O  0.355  1.128  0.084
Ti  -3.340  0.229  -0.074
O  0.052  -0.300  2.666
O  0.126  2.839  1.842
Ti  0.663  -2.772  -0.161
O  -0.378  -1.152  -0.073
O  -2.682  -0.983  1.381
Ti  3.276  -0.197  -0.005
O  2.708  1.065  -1.414
O  4.891  -0.406  -0.020
Ti  -0.893  -1.164  -1.905
O  0.106  0.223  -2.637
O  -4.961  0.443  -0.013
Ti  1.040  1.498  -1.709
O  0.258  3.172  -1.305
O  -0.170  -2.887  -1.794
Ti  0.970  1.132  1.927
O  2.226  -1.957  -0.159
O  2.658  0.762  1.625
Ti  -1.055  -1.487  1.733
O  -0.276  -3.128  1.418
O  -2.562  -0.690  -1.690
Ti  -0.677  2.725  0.204
O  -2.306  1.978  0.055
   24
step   42
O  0.356  1.129  0.084
Ti  -3.343  0.230  -0.074
O  0.053  -0.300  2.663
O  0.125  2.836  1.844
Ti  0.661  -2.773  -0.160
O  -0.379  -1.156  -0.072
O  -2.681  -0.978  1.381
Ti  3.278  -0.196  -0.005
O  2.707  1.065  -1.412
O  4.902  -0.405  -0.021
Ti  -0.893  -1.163  -1.905
O  0.109  0.223  -2.634
O  -4.971  0.440  -0.014
Ti  1.040  1.499  -1.710
O  0.260  3.171  -1.306
O  -0.171  -2.885  -1.791
Ti  0.970  1.131  1.926
O  2.226  -1.957  -0.159
O  2.658  0.760  1.622
Ti  -1.055  -1.488  1.734
O  -0.276  -3.126  1.417
O  -2.561  -0.688  -1.689
Ti  -0.677  2.725  0.205
O  -2.307  1.977  0.056
   24
step   43
O  0.357  1.130  0.084
Ti  -3.346  0.231  -0.074
O  0.053  -0.299  2.659
O  0.123  2.832  1.845
Ti  0.660  -2.774  -0.158
O  -0.379  -1.160  -0.071
O  -2.681  -0.973  1.381
Ti  3.280  -0.195  -0.006
O  2.706  1.064  -1.410
O  4.912  -0.404  -0.023
Ti  -0.893  -1.162  -1.905
O  0.113  0.223  -2.632
O  -4.980  0.437  -0.015
Ti  1.040  1.500  -1.710
O  0.262  3.169  -1.308
O  -0.171  -2.883  -1.789
Ti  0.971  1.130  1.926
O  2.226  -1.957  -0.160
O  2.658  0.758  1.620
Ti  -1.054  -1.489  1.734
O  -0.277  -3.125  1.416
O  -2.560  -0.687  -1.688
Ti  -0.677  2.725  0.205
O  -2.308  1.975  0.056
   24
step   44
O  0.359  1.131  0.084
Ti  -3.348  0.232  -0.074
O  0.054  -0.298  2.656
O  0.122  2.828  1.848
Ti  0.658  -2.775  -0.157
O  -0.380  -1.164  -0.070
O  -2.682  -0.968  1.381
Ti  3.282  -0.194  -0.007
O  2.706  1.062  -1.408
O  4.922  -0.403  -0.024
Ti  -0.893  -1.161  -1.905
O  0.116  0.222  -2.630
O  -4.990  0.434  -0.016
Ti  1.040  1.502  -1.710
O  0.264  3.168  -1.310
O  -0.172  -2.882  -1.787
Ti  0.971  1.130  1.925
O  2.227  -1.957  -0.160
O  2.658  0.756  1.617
Ti  -1.054  -1.491  1.734
O  -0.277  -3.123  1.416
O  -2.559  -0.685  -1.687
Ti  -0.677  2.726  0.205
O  -2.309  1.973  0.057
   24
step   45
O  0.360  1.131  0.083
Ti  -3.351  0.233  -0.074
O  0.054  -0.298  2.651
O  0.121  2.824  1.850
Ti  0.656  -2.775  -0.156
O  -0.381  -1.168  -0.069
O  -2.682  -0.963  1.380
Ti  3.284  -0.193  -0.007
O  2.705  1.061  -1.406
O  4.932  -0.402  -0.025
Ti  -0.892  -1.161  -1.905
O  0.119  0.222  -2.627
O  -4.999  0.431  -0.017
Ti  1.040  1.503  -1.711
O  0.266  3.167  -1.313
O  -0.173  -2.881  -1.785
Ti  0.971  1.129  1.925
O  2.228  -1.956  -0.160
O  2.658  0.754  1.614
Ti  -1.053  -1.492  1.734
O  -0.277  -3.122  1.415
O  -2.559  -0.683  -1.686
Ti  -0.677  2.726  0.205
O  -2.310  1.971  0.058
   24
step   46
O  0.362  1.132  0.082
Ti  -3.353  0.235  -0.073
O  0.055  -0.297  2.647
O  0.120  2.820  1.853
Ti  0.655  -2.775  -0.155
O  -0.382  -1.171  -0.067
O  -2.683  -0.958  1.380
Ti  3.286  -0.192  -0.008
O  2.705  1.059  -1.403
O  4.941  -0.400  -0.026
Ti  -0.892  -1.160  -1.904
O  0.122  0.222  -2.625
O  -5.007  0.429  -0.018
Ti  1.040  1.504  -1.711
O  0.268  3.165  -1.316
O  -0.174  -2.880  -1.784
Ti  0.971  1.128  1.924
O  2.229  -1.955  -0.159
O  2.658  0.751  1.611
Ti  -1.052  -1.493  1.734
O  -0.277  -3.121  1.415
O  -2.559  -0.682  -1.685
Ti  -0.677  2.726  0.205
O  -2.311  1.968  0.059
   24
step   47
O  0.364  1.132  0.082
Ti  -3.356  0.236  -0.073
O  0.055  -0.297  2.643
O  0.119  2.815  1.856
Ti  0.653  -2.776  -0.154
O  -0.383  -1.175  -0.066
O  -2.685  -0.952  1.379
Ti  3.289  -0.192  -0.008
O  2.704  1.058  -1.401
O  4.949  -0.398  -0.027
Ti  -0.891  -1.159  -1.904
O  0.124  0.221  -2.623
O  -5.015  0.426  -0.019
Ti  1.040  1.506  -1.710
O  0.271  3.164  -1.320
O  -0.175  -2.879  -1.783
Ti  0.970  1.127  1.923
O  2.231  -1.954  -0.159
O  2.658  0.749  1.608
Ti  -1.050  -1.493  1.734
O  -0.277  -3.120  1.415
O  -2.559  -0.680  -1.683
Ti  -0.678  2.726  0.205
O  -2.312  1.966  0.060
   24
step   48
O  0.366  1.132  0.081
Ti  -3.358  0.238  -0.073
O  0.055  -0.296  2.638
O  0.117  2.810  1.860
Ti  0.652  -2.776  -0.153
O  -0.384  -1.178  -0.064
O  -2.686  -0.947  1.379
Ti  3.291  -0.191  -0.009
O  2.704  1.056  -1.398
O  4.955  -0.396  -0.028
Ti  -0.891  -1.158  -1.904
O  0.127  0.220  -2.620
O  -5.021  0.422  -0.020
Ti  1.040  1.507  -1.710
O  0.273  3.163  -1.323
O  -0.176  -2.879  -1.783
Ti  0.970  1.127  1.922
O  2.233  -1.952  -0.158
O  2.658  0.746  1.604
Ti  -1.049  -1.494  1.734
O  -0.277  -3.120  1.415
O  -2.560  -0.678  -1.681
Ti  -0.679  2.726  0.205
O  -2.313  1.963  0.061
   24