    3
step    0
Ti  -0.000  -0.002  0.372
O  -0.000  1.397  -0.559
O  -0.000  -1.391  -0.555
    3
step    1
Ti  -0.000  -0.003  0.372
O  -0.000  1.401  -0.559
O  -0.000  -1.392  -0.554
    3
step    2
Ti  -0.000  -0.004  0.372
O  -0.000  1.404  -0.560
O  -0.000  -1.392  -0.553
    3
step    3
Ti  -0.000  -0.005  0.372
O  -0.000  1.406  -0.560
O  -0.000  -1.392  -0.552
    3
step    4
Ti  -0.000  -0.005  0.371
O  -0.000  1.407  -0.560
O  -0.000  -1.391  -0.551
    3
step    5
Ti  -0.000  -0.005  0.371
O  -0.000  1.407  -0.559
O  -0.000  -1.391  -0.550
    3
step    6
Ti  -0.000  -0.006  0.370
O  -0.000  1.406  -0.558
O  -0.000  -1.389  -0.549
    3
step    7
Ti  -0.000  -0.006  0.369
O  -0.000  1.405  -0.557
O  -0.000  -1.388  -0.547
    3
step    8
Ti  -0.000  -0.005  0.368
O  -0.000  1.402  -0.555
O  -0.000  -1.386  -0.546
    3
step    9
Ti  -0.000  -0.005  0.367
O  -0.000  1.399  -0.554
O  -0.000  -1.385  -0.545
    3
step   10
Ti  -0.000  -0.004  0.366
O  -0.000  1.396  -0.552
O  -0.000  -1.383  -0.544
    3
step   11
Ti  -0.000  -0.004  0.365
O  -0.000  1.392  -0.550
O  -0.000  -1.381  -0.543
    3
step   12
Ti  -0.000  -0.003  0.365
O  -0.000  1.387  -0.548
O  -0.000  -1.379  -0.543
    3
step   13
Ti  -0.000  -0.002  0.364
O  -0.000  1.383  -0.546
O  -0.000  -1.378  -0.543
    3
step   14
Ti  -0.000  -0.001  0.364
O  -0.000  1.379  -0.545
O  -0.000  -1.377  -0.543
    3
step   15
Ti  -0.000  0.000  0.363
O  -0.000  1.375  -0.544
O  -0.000  -1.376  -0.543
    3
step   16
Ti  -0.000  0.001  0.363
O  -0.000  1.371  -0.543
O  -0.000  -1.375  -0.544
    3
step   17
Ti  -0.000  0.002  0.363
O  -0.000  1.367  -0.542
O  -0.000  -1.374  -0.545
    3
step   18
Ti  -0.000  0.003  0.364
O  -0.000  1.364  -0.542
O  -0.000  -1.374  -0.546
    3
step   19
Ti  -0.000  0.004  0.365
O  -0.000  1.362  -0.543
O  -0.000  -1.374  -0.548
    3
step   20
Ti  -0.000  0.005  0.365
O  -0.000  1.360  -0.544
O  -0.000  -1.374  -0.549
    3
step   21
Ti  -0.000  0.005  0.367
O  -0.000  1.359  -0.545
O  -0.000  -1.374  -0.551
    3
step   22
Ti  -0.000  0.005  0.368
O  -0.000  1.358  -0.547
O  -0.000  -1.374  -0.554
    3
step   23
Ti  -0.000  0.005  0.369
O  -0.000  1.358  -0.549
O  -0.000  -1.374  -0.556
    3
step   24
Ti  -0.000  0.005  0.371
O  -0.000  1.359  -0.551
O  -0.000  -1.374  -0.558
    3
step   25
Ti  -0.000  0.005  0.372
O  -0.000  1.360  -0.554
O  -0.000  -1.375  -0.560
    3
step   26
Ti  -0.000  0.004  0.374
O  -0.000  1.361  -0.557
O  -0.000  -1.374  -0.562
    3
step   27
Ti  -0.000  0.004  0.376
O  -0.000  1.363  -0.560
O  -0.000  -1.374  -0.564
    3
step   28
Ti  -0.000  0.003  0.377
O  -0.000  1.365  -0.563
O  -0.000  -1.374  -0.566
    3
step   29
Ti  -0.000  0.002  0.379
O  -0.000  1.367  -0.565
O  -0.000  -1.373  -0.567
    3
step   30
Ti  -0.000  0.001  0.380
O  -0.000  1.369  -0.568
O  -0.000  -1.372  -0.569
    3
step   31
Ti  -0.000  -0.000  0.381
O  -0.000  1.371  -0.571
O  -0.000  -1.371  -0.570
    3
step   32
Ti  -0.000  -0.001  0.382
O  -0.000  1.373  -0.573
O  -0.000  -1.369  -0.570
    3
step   33
Ti  -0.000  -0.002  0.383
O  -0.000  1.374  -0.575
O  -0.000  -1.367  -0.570
    3
step   34
Ti  -0.000  -0.003  0.383
O  -0.000  1.375  -0.576
O  -0.000  -1.366  -0.571
    3
step   35
Ti  -0.000  -0.004  0.383
O  -0.000  1.376  -0.577
O  -0.000  -1.364  -0.570
    3
step   36
Ti  -0.000  -0.005  0.384
O  -0.000  1.376  -0.578
O  -0.000  -1.362  -0.570
    3
step   37
Ti  -0.000  -0.005  0.383
O  -0.000  1.376  -0.578
O  -0.000  -1.360  -0.569
    3
step   38
Ti  -0.000  -0.006  0.383
O  -0.000  1.375  -0.578
O  -0.000  -1.358  -0.568
    3
step   39
Ti  -0.000  -0.006  0.382
O  -0.000  1.374  -0.577
O  -0.000  -1.356  -0.567
    3
step   40
Ti  -0.000  -0.006  0.382
O  -0.000  1.372  -0.576
O  -0.000  -1.354  -0.566
    3
step   41
Ti  -0.000  -0.006  0.381
O  -0.000  1.370  -0.574
O  -0.000  -1.352  -0.565
    3
step   42
Ti  -0.000  -0.006  0.380
O  -0.000  1.368  -0.573
O  -0.000  -1.351  -0.564
    3
step   43
Ti  -0.000  -0.005  0.379
O  -0.000  1.365  -0.571
O  -0.000  -1.350  -0.563
    3
step   44
Ti  -0.000  -0.004  0.378
O  -0.000  1.363  -0.569
O  -0.000  -1.350  -0.562
    3
step   45
Ti  -0.000  -0.003  0.377
O  -0.000  1.360  -0.567
O  -0.000  -1.350  -0.561
    3
step   46
Ti  -0.000  -0.002  0.376
O  -0.000  1.357  -0.564
O  -0.000  -1.350  -0.560
    3
step   47
Ti  -0.000  -0.001  0.375
O  -0.000  1.355  -0.562
O  -0.000  -1.351  -0.560
    3
step   48
Ti  -0.000  -0.000  0.374
O  -0.000  1.352  -0.560
O  -0.000  -1.352  -0.559
    3
step   49
Ti  -0.000  0.001  0.374
O  -0.000  1.350  -0.558
O  -0.000  -1.354  -0.559
    3
step   50
Ti  -0.000  0.002  0.373
O  -0.000  1.349  -0.557
O  -0.000  -1.356  -0.559
    3
step   51
Ti  -0.000  0.004  0.373
O  -0.000  1.347  -0.556
O  -0.000  -1.358  -0.560
    3
step   52
Ti  -0.000  0.005  0.373
O  -0.000  1.346  -0.554
O  -0.000  -1.360  -0.560
    3
step   53
Ti  -0.000  0.006  0.373
O  -0.000  1.346  -0.554
O  -0.000  -1.363  -0.561
    3
step   54
Ti  -0.000  0.006  0.373
O  -0.000  1.346  -0.553
O  -0.000  -1.365  -0.562
    3
step   55
Ti  -0.000  0.007  0.373
O  -0.000  1.347  -0.553
O  -0.000  -1.368  -0.563
    3
step   56
Ti  -0.000  0.007  0.373
O  -0.000  1.348  -0.554
O  -0.000  -1.370  -0.564
    3
step   57
Ti  -0.000  0.008  0.374
O  -0.000  1.349  -0.554
O  -0.000  -1.372  -0.565
    3
step   58
Ti  -0.000  0.008  0.375
O  -0.000  1.351  -0.555
O  -0.000  -1.374  -0.565
    3
step   59
Ti  -0.000  0.007  0.375
O  -0.000  1.354  -0.557
O  -0.000  -1.375  -0.566
    3
step   60
Ti  -0.000  0.007  0.376
O  -0.000  1.356  -0.558
O  -0.000  -1.376  -0.567
    3
step   61
Ti  -0.000  0.006  0.377
O  -0.000  1.359  -0.559
O  -0.000  -1.377  -0.567
    3
step   62
Ti  -0.000  0.005  0.377
O  -0.000  1.362  -0.561
O  -0.000  -1.377  -0.567
    3
step   63
Ti  -0.000  0.004  0.378
O  -0.000  1.364  -0.563
O  -0.000  -1.376  -0.567
    3
step   64
Ti  -0.000  0.003  0.378
O  -0.000  1.367  -0.564
O  -0.000  -1.375  -0.567
    3
step   65
Ti  -0.000  0.001  0.379
O  -0.000  1.370  -0.566
O  -0.000  -1.374  -0.567
    3
step   66
Ti  -0.000  -0.000  0.379
O  -0.000  1.372  -0.567
O  -0.000  -1.372  -0.566
    3
step   67
Ti  -0.000  -0.001  0.379
O  -0.000  1.374  -0.569
O  -0.000  -1.370  -0.566
    3
step   68
Ti  -0.000  -0.003  0.379
O  -0.000  1.375  -0.570
O  -0.000  -1.367  -0.565
    3
step   69
Ti  -0.000  -0.004  0.379
O  -0.000  1.376  -0.571
O  -0.000  -1.365  -0.564
    3
step   70
Ti  -0.000  -0.005  0.379
O  -0.000  1.377  -0.571
O  -0.000  -1.362  -0.563
    3
step   71
Ti  -0.000  -0.006  0.379
O  -0.000  1.377  -0.572
O  -0.000  -1.360  -0.562
    3
step   72
Ti  -0.000  -0.006  0.379
O  -0.000  1.377  -0.572
O  -0.000  -1.357  -0.562
    3
step   73
Ti  -0.000  -0.007  0.379
O  -0.000  1.376  -0.572
O  -0.000  -1.355  -0.561
    3
step   74
Ti  -0.000  -0.007  0.379
O  -0.000  1.374  -0.572
O  -0.000  -1.353  -0.561
    3
step   75
Ti  -0.000  -0.007  0.378
O  -0.000  1.372  -0.571
O  -0.000  -1.351  -0.560
    3
step   76
Ti  -0.000  -0.007  0.378
O  -0.000  1.370  -0.571
O  -0.000  -1.350  -0.560
    3
step   77
Ti  -0.000  -0.006  0.378
O  -0.000  1.367  -0.570
O  -0.000  -1.349  -0.560
    3
step   78
Ti  -0.000  -0.005  0.378
O  -0.000  1.364  -0.569
O  -0.000  -1.348  -0.561
    3
step   79
Ti  -0.000  -0.004  0.378
O  -0.000  1.360  -0.568
O  -0.000  -1.348  -0.562
    3
step   80
Ti  -0.000  -0.003  0.378
O  -0.000  1.357  -0.568
O  -0.000  -1.348  -0.563
    3
step   81
Ti  -0.000  -0.001  0.378
O  -0.000  1.353  -0.567
O  -0.000  -1.349  -0.564
    3
step   82
Ti  -0.000  0.000  0.378
O  -0.000  1.349  -0.566
O  -0.000  -1.350  -0.565
    3
step   83
Ti  -0.000  0.002  0.378
O  -0.000  1.345  -0.565
O  -0.000  -1.351  -0.567
    3
step   84
Ti  -0.000  0.003  0.379
O  -0.000  1.342  -0.565
O  -0.000  -1.352  -0.569
    3
step   85
Ti  -0.000  0.005  0.379
O  -0.000  1.339  -0.565
O  -0.000  -1.353  -0.571
    3
step   86
Ti  -0.000  0.006  0.380
O  -0.000  1.336  -0.565
O  -0.000  -1.354  -0.573
    3
step   87
Ti  -0.000  0.007  0.381
O  -0.000  1.334  -0.565
O  -0.000  -1.355  -0.574
    3
step   88
Ti  -0.000  0.008  0.382
O  -0.000  1.332  -0.566
O  -0.000  -1.356  -0.576
    3
step   89
Ti  -0.000  0.008  0.383
O  -0.000  1.331  -0.567
O  -0.000  -1.356  -0.578
    3
step   90
Ti  -0.000  0.008  0.384
O  -0.000  1.331  -0.568
O  -0.000  -1.356  -0.580
    3
step   91
Ti  -0.000  0.008  0.385
O  -0.000  1.332  -0.570
O  -0.000  -1.356  -0.581
    3
step   92
Ti  -0.000  0.008  0.386
O  -0.000  1.333  -0.572
O  -0.000  -1.356  -0.582
    3
step   93
Ti  -0.000  0.007  0.387
O  -0.000  1.334  -0.574
O  -0.000  -1.355  -0.583
    3
step   94
Ti  -0.000  0.006  0.388
O  -0.000  1.336  -0.576
O  -0.000  -1.353  -0.584
    3
step   95
Ti  -0.000  0.004  0.388
O  -0.000  1.339  -0.578
O  -0.000  -1.352  -0.584
    3
step   96
Ti  -0.000  0.003  0.389
O  -0.000  1.341  -0.581
O  -0.000  -1.350  -0.584
    3
step   97
Ti  -0.000  0.001  0.390
O  -0.000  1.344  -0.583
O  -0.000  -1.348  -0.584
    3
step   98
Ti  -0.000  -0.001  0.390
O  -0.000  1.347  -0.585
O  -0.000  -1.345  -0.583
    3
step   99
Ti  -0.000  -0.002  0.390
O  -0.000  1.349  -0.586
O  -0.000  -1.343  -0.582
    3
step  100
Ti  -0.000  -0.004  0.391
O  -0.000  1.352  -0.587
O  -0.000  -1.340  -0.581
    3
step  101
Ti  -0.000  -0.005  0.390
O  -0.000  1.353  -0.588
O  -0.000  -1.338  -0.580
    3
step  102
Ti  -0.000  -0.007  0.390
O  -0.000  1.355  -0.589
O  -0.000  -1.335  -0.578
    3
step  103
Ti  -0.000  -0.008  0.390
O  -0.000  1.356  -0.589
O  -0.000  -1.333  -0.577
    3
step  104
Ti  -0.000  -0.008  0.389
O  -0.000  1.357  -0.589
O  -0.000  -1.331  -0.576
    3
step  105
Ti  -0.000  -0.009  0.389
O  -0.000  1.357  -0.588
O  -0.000  -1.330  -0.574
    3
step  106
Ti  -0.000  -0.009  0.388
O  -0.000  1.356  -0.587
O  -0.000  -1.329  -0.573
    3
step  107
Ti  -0.000  -0.009  0.387
O  -0.000  1.356  -0.586
O  -0.000  -1.329  -0.572
    3
step  108
Ti  -0.000  -0.008  0.386
O  -0.000  1.354  -0.584
O  -0.000  -1.330  -0.571
    3
step  109
Ti  -0.000  -0.007  0.385
O  -0.000  1.353  -0.582
O  -0.000  -1.330  -0.571
    3
step  110
Ti  -0.000  -0.006  0.385
O  -0.000  1.351  -0.581
O  -0.000  -1.332  -0.570
    3
step  111
Ti  -0.000  -0.005  0.384
O  -0.000  1.349  -0.579
O  -0.000  -1.334  -0.570
    3
step  112
Ti  -0.000  -0.004  0.383
O  -0.000  1.347  -0.577
O  -0.000  -1.336  -0.571
    3
step  113
Ti  -0.000  -0.002  0.383
O  -0.000  1.345  -0.575
O  -0.000  -1.339  -0.571
    3
step  114
Ti  -0.000  -0.001  0.383
O  -0.000  1.344  -0.573
O  -0.000  -1.342  -0.572
    3
step  115
Ti  -0.000  0.001  0.382
O  -0.000  1.342  -0.572
O  -0.000  -1.345  -0.572
    3
step  116
Ti  -0.000  0.003  0.382
O  -0.000  1.341  -0.570
O  -0.000  -1.348  -0.573
    3
step  117
Ti  -0.000  0.004  0.382
O  -0.000  1.340  -0.569
O  -0.000  -1.351  -0.574
    3
step  118
Ti  -0.000  0.005  0.382
O  -0.000  1.339  -0.568
O  -0.000  -1.354  -0.575
    3
step  119
Ti  -0.000  0.006  0.382
O  -0.000  1.339  -0.568
O  -0.000  -1.357  -0.575
    3
step  120
Ti  -0.000  0.007  0.382
O  -0.000  1.339  -0.567
O  -0.000  -1.359  -0.576
    3
step  121
Ti  -0.000  0.007  0.382
O  -0.000  1.340  -0.567
O  -0.000  -1.362  -0.577
    3
step  122
Ti  -0.000  0.007  0.382
O  -0.000  1.341  -0.567
O  -0.000  -1.363  -0.577
    3
step  123
Ti  -0.000  0.007  0.383
O  -0.000  1.343  -0.567
O  -0.000  -1.365  -0.577
    3
step  124
Ti  -0.000  0.007  0.383
O  -0.000  1.345  -0.568
O  -0.000  -1.366  -0.577
    3
step  125
Ti  -0.000  0.006  0.383
O  -0.000  1.348  -0.569
O  -0.000  -1.366  -0.577
    3
step  126
Ti  -0.000  0.005  0.383
O  -0.000  1.350  -0.569
O  -0.000  -1.366  -0.576
    3
step  127
Ti  -0.000  0.004  0.383
O  -0.000  1.353  -0.570
O  -0.000  -1.366  -0.576
    3
step  128
Ti  -0.000  0.003  0.383
O  -0.000  1.356  -0.571
O  -0.000  -1.365  -0.575
    3
step  129
Ti  -0.000  0.002  0.383
O  -0.000  1.359  -0.572
O  -0.000  -1.365  -0.574
    3
step  130
Ti  -0.000  0.000  0.383
O  -0.000  1.362  -0.573
O  -0.000  -1.363  -0.573
    3
step  131
Ti  -0.000  -0.001  0.383
O  -0.000  1.365  -0.574
O  -0.000  -1.362  -0.571
    3
step  132
Ti  -0.000  -0.002  0.383
O  -0.000  1.367  -0.575
O  -0.000  -1.360  -0.570
    3
step  133
Ti  -0.000  -0.004  0.382
O  -0.000  1.370  -0.575
O  -0.000  -1.358  -0.569
    3
step  134
Ti  -0.000  -0.005  0.382
O  -0.000  1.372  -0.576
O  -0.000  -1.356  -0.567
    3
step  135
Ti  -0.000  -0.006  0.381
O  -0.000  1.373  -0.576
O  -0.000  -1.354  -0.566
    3
step  136
Ti  -0.000  -0.007  0.381
O  -0.000  1.374  -0.576
O  -0.000  -1.352  -0.564
    3
step  137
Ti  -0.000  -0.008  0.381
O  -0.000  1.374  -0.575
O  -0.000  -1.351  -0.563
    3
step  138
Ti  -0.000  -0.008  0.380
O  -0.000  1.374  -0.575
O  -0.000  -1.349  -0.562
    3
step  139
Ti  -0.000  -0.009  0.379
O  -0.000  1.373  -0.574
O  -0.000  -1.348  -0.561
    3
step  140
Ti  -0.000  -0.008  0.379
O  -0.000  1.372  -0.574
O  -0.000  -1.347  -0.560
    3
step  141
Ti  -0.000  -0.008  0.379
O  -0.000  1.371  -0.573
O  -0.000  -1.346  -0.560
    3
step  142
Ti  -0.000  -0.008  0.378
O  -0.000  1.369  -0.572
O  -0.000  -1.346  -0.560
    3
step  143
Ti  -0.000  -0.007  0.378
O  -0.000  1.366  -0.571
O  -0.000  -1.346  -0.560
    3
step  144
Ti  -0.000  -0.006  0.378
O  -0.000  1.364  -0.569
O  -0.000  -1.347  -0.560
    3
step  145
Ti  -0.000  -0.004  0.377
O  -0.000  1.361  -0.568
O  -0.000  -1.348  -0.561
    3
step  146
Ti  -0.000  -0.003  0.377
O  -0.000  1.358  -0.567
O  -0.000  -1.349  -0.562
    3
step  147
Ti  -0.000  -0.002  0.377
O  -0.000  1.356  -0.566
O  -0.000  -1.351  -0.563
    3
step  148
Ti  -0.000  -0.000  0.378
O  -0.000  1.353  -0.565
O  -0.000  -1.353  -0.564
    3
step  149
Ti  -0.000  0.001  0.378
O  -0.000  1.351  -0.565
O  -0.000  -1.355  -0.566
    3
step  150
Ti  -0.000  0.003  0.378
O  -0.000  1.349  -0.564
O  -0.000  -1.357  -0.567
    3
step  151
Ti  -0.000  0.004  0.379
O  -0.000  1.347  -0.564
O  -0.000  -1.359  -0.569
    3
step  152
Ti  -0.000  0.005  0.379
O  -0.000  1.346  -0.564
O  -0.000  -1.361  -0.571
    3
step  153
Ti  -0.000  0.006  0.380
O  -0.000  1.345  -0.564
O  -0.000  -1.363  -0.572
    3
step  154
Ti  -0.000  0.007  0.380
O  -0.000  1.345  -0.565
O  -0.000  -1.365  -0.574
    3
step  155
Ti  -0.000  0.007  0.381
O  -0.000  1.345  -0.565
O  -0.000  -1.367  -0.575
    3
step  156
Ti  -0.000  0.008  0.382
O  -0.000  1.345  -0.566
O  -0.000  -1.368  -0.576
    3
step  157
Ti  -0.000  0.008  0.382
O  -0.000  1.347  -0.567
O  -0.000  -1.369  -0.577
    3
step  158
Ti  -0.000  0.007  0.383
O  -0.000  1.348  -0.568
O  -0.000  -1.370  -0.577
    3
step  159
Ti  -0.000  0.007  0.383
O  -0.000  1.350  -0.569
O  -0.000  -1.370  -0.578
    3
step  160
Ti  -0.000  0.006  0.384
O  -0.000  1.352  -0.570
O  -0.000  -1.371  -0.578
    3
step  161
Ti  -0.000  0.005  0.384
O  -0.000  1.354  -0.571
O  -0.000  -1.370  -0.578
    3
step  162
Ti  -0.000  0.004  0.384
O  -0.000  1.357  -0.571
O  -0.000  -1.370  -0.577
    3
step  163
Ti  -0.000  0.003  0.384
O  -0.000  1.359  -0.572
O  -0.000  -1.369  -0.576
    3
step  164
Ti  -0.000  0.002  0.384
O  -0.000  1.361  -0.573
O  -0.000  -1.368  -0.575
    3
step  165
Ti  -0.000  0.001  0.383
O  -0.000  1.364  -0.573
O  -0.000  -1.366  -0.573
    3
step  166
Ti  -0.000  -0.000  0.383
O  -0.000  1.366  -0.573
O  -0.000  -1.365  -0.571
    3
step  167
Ti  -0.000  -0.002  0.382
O  -0.000  1.368  -0.573
O  -0.000  -1.363  -0.569
    3
step  168
Ti  -0.000  -0.003  0.381
O  -0.000  1.369  -0.572
O  -0.000  -1.361  -0.567
    3
step  169
Ti  -0.000  -0.004  0.380
O  -0.000  1.370  -0.571
O  -0.000  -1.359  -0.565
    3
step  170
Ti  -0.000  -0.005  0.379
O  -0.000  1.371  -0.570
O  -0.000  -1.357  -0.563
    3
step  171
Ti  -0.000  -0.005  0.378
O  -0.000  1.371  -0.569
O  -0.000  -1.355  -0.560
    3
step  172
Ti  -0.000  -0.006  0.376
O  -0.000  1.371  -0.568
O  -0.000  -1.354  -0.558
    3
step  173
Ti  -0.000  -0.006  0.375
O  -0.000  1.371  -0.566
O  -0.000  -1.352  -0.556
    3
step  174
Ti  -0.000  -0.006  0.374
O  -0.000  1.370  -0.564
O  -0.000  -1.351  -0.554
    3
step  175
Ti  -0.000  -0.006  0.373
O  -0.000  1.369  -0.563
O  -0.000  -1.350  -0.553
    3
step  176
Ti  -0.000  -0.006  0.372
O  -0.000  1.367  -0.561
O  -0.000  -1.350  -0.551
    3
step  177
Ti  -0.000  -0.005  0.371
O  -0.000  1.366  -0.559
O  -0.000  -1.350  -0.550
    3
step  178
Ti  -0.000  -0.004  0.370
O  -0.000  1.364  -0.557
O  -0.000  -1.351  -0.550
    3
step  179
Ti  -0.000  -0.003  0.369
O  -0.000  1.362  -0.556
O  -0.000  -1.352  -0.550
    3
step  180
Ti  0.000  -0.002  0.369
O  -0.000  1.360  -0.554
O  -0.000  -1.354  -0.550
    3
step  181
Ti  0.000  -0.001  0.369
O  -0.000  1.359  -0.553
O  -0.000  -1.356  -0.551
    3
step  182
Ti  0.000  0.000  0.369
O  -0.000  1.357  -0.552
O  -0.000  -1.358  -0.552
    3
step  183
Ti  0.000  0.001  0.369
O  -0.000  1.356  -0.552
O  -0.000  -1.360  -0.553
    3
step  184
Ti  0.000  0.003  0.370
O  -0.000  1.355  -0.552
O  -0.000  -1.363  -0.555
    3
step  185
Ti  0.000  0.004  0.370
O  -0.000  1.355  -0.552
O  -0.000  -1.366  -0.556
    3
step  186
Ti  0.000  0.005  0.371
O  -0.000  1.354  -0.553
O  -0.000  -1.368  -0.558
    3
step  187
Ti  0.000  0.005  0.372
O  -0.000  1.355  -0.554
O  -0.000  -1.370  -0.560
    3
step  188
Ti  0.000  0.006  0.373
O  -0.000  1.355  -0.555
O  -0.000  -1.373  -0.562
    3
step  189
Ti  0.000  0.006  0.375
O  -0.000  1.356  -0.556
O  -0.000  -1.374  -0.564
    3
step  190
Ti  0.000  0.006  0.376
O  -0.000  1.357  -0.558
O  -0.000  -1.376  -0.566
    3
step  191
Ti  -0.000  0.006  0.377
O  -0.000  1.358  -0.560
O  -0.000  -1.377  -0.568
    3
step  192
Ti  -0.000  0.006  0.378
O  -0.000  1.360  -0.562
O  -0.000  -1.377  -0.570
    3
step  193
Ti  -0.000  0.006  0.380
O  -0.000  1.361  -0.564
O  -0.000  -1.377  -0.571
    3
step  194
Ti  -0.000  0.005  0.381
O  -0.000  1.362  -0.566
O  -0.000  -1.377  -0.572
    3
step  195
Ti  -0.000  0.004  0.382
O  -0.000  1.363  -0.568
O  -0.000  -1.376  -0.573
    3
step  196
Ti  -0.000  0.003  0.382
O  -0.000  1.364  -0.570
O  -0.000  -1.374  -0.574
    3
step  197
Ti  -0.000  0.002  0.383
O  -0.000  1.365  -0.572
O  -0.000  -1.372  -0.574
    3
step  198
Ti  -0.000  0.001  0.384
O  -0.000  1.365  -0.573
O  -0.000  -1.369  -0.574
    3
step  199
Ti  -0.000  0.000  0.384
O  -0.000  1.365  -0.575
O  -0.000  -1.366  -0.574
    3
step  200
Ti  -0.000  -0.001  0.384
O  -0.000  1.365  -0.576
O  -0.000  -1.363  -0.574
    3
step  201
Ti  -0.000  -0.002  0.384
O  -0.000  1.364  -0.577
O  -0.000  -1.359  -0.573
    3
step  202
Ti  -0.000  -0.002  0.384
O  -0.000  1.363  -0.577
O  -0.000  -1.355  -0.573
    3
step  203
Ti  -0.000  -0.003  0.384
O  -0.000  1.361  -0.577
O  -0.000  -1.351  -0.572
    3
step  204
Ti  0.000  -0.004  0.384
O  -0.000  1.359  -0.578
O  -0.000  -1.348  -0.571
    3
step  205
Ti  0.000  -0.004  0.384
O  -0.000  1.357  -0.578
O  -0.000  -1.344  -0.570
    3
step  206
Ti  0.000  -0.005  0.383
O  -0.000  1.354  -0.577
O  -0.000  -1.340  -0.570
    3
step  207
Ti  0.000  -0.005  0.383
O  -0.000  1.351  -0.577
O  -0.000  -1.337  -0.569
    3
step  208
Ti  0.000  -0.005  0.383
O  -0.000  1.348  -0.577
O  -0.000  -1.334  -0.569
    3
step  209
Ti  -0.000  -0.004  0.383
O  -0.000  1.345  -0.576
O  -0.000  -1.332  -0.569
    3
step  210
Ti  -0.000  -0.004  0.383
O  -0.000  1.341  -0.575
O  -0.000  -1.330  -0.569
    3
step  211
Ti  -0.000  -0.003  0.383
O  -0.000  1.338  -0.575
O  -0.000  -1.329  -0.570
    3
step  212
Ti  0.000  -0.002  0.383
O  -0.000  1.335  -0.575
O  -0.000  -1.328  -0.571
    3
step  213
Ti  0.000  -0.001  0.383
O  -0.000  1.331  -0.574
O  -0.000  -1.328  -0.572
    3
step  214
Ti  0.000  0.000  0.384
O  -0.000  1.328  -0.574
O  -0.000  -1.328  -0.573
    3
step  215
Ti  -0.000  0.001  0.384
O  -0.000  1.326  -0.574
O  -0.000  -1.329  -0.575
    3
step  216
Ti  -0.000  0.002  0.385
O  -0.000  1.323  -0.575
O  -0.000  -1.330  -0.577
    3
step  217
Ti  -0.000  0.003  0.386
O  -0.000  1.321  -0.575
O  -0.000  -1.332  -0.579
    3
step  218
Ti  -0.000  0.005  0.387
O  -0.000  1.320  -0.576
O  -0.000  -1.333  -0.582
    3
step  219
Ti  -0.000  0.005  0.388
O  -0.000  1.319  -0.577
O  -0.000  -1.335  -0.584
    3
step  220
Ti  -0.000  0.006  0.389
O  -0.000  1.318  -0.579
O  -0.000  -1.337  -0.587
    3
step  221
Ti  -0.000  0.007  0.391
O  -0.000  1.318  -0.580
O  -0.000  -1.338  -0.589
    3
step  222
Ti  -0.000  0.007  0.392
O  -0.000  1.319  -0.582
O  -0.000  -1.340  -0.591
    3
step  223
Ti  0.000  0.007  0.393
O  -0.000  1.320  -0.584
O  -0.000  -1.341  -0.593
    3
step  224
Ti  -0.000  0.007  0.395
O  -0.000  1.321  -0.585
O  -0.000  -1.342  -0.595
    3
step  225
Ti  -0.000  0.007  0.396
O  -0.000  1.323  -0.587
O  -0.000  -1.343  -0.597
    3
step  226
Ti  -0.000  0.006  0.397
O  -0.000  1.324  -0.589
O  -0.000  -1.343  -0.598
    3
step  227
Ti  -0.000  0.006  0.398
O  -0.000  1.326  -0.591
O  -0.000  -1.344  -0.599
    3
step  228
Ti  0.000  0.005  0.398
O  -0.000  1.328  -0.592
O  -0.000  -1.343  -0.599
    3
step  229
Ti  0.000  0.004  0.399
O  -0.000  1.330  -0.594
O  -0.000  -1.342  -0.599
    3
step  230
Ti  -0.000  0.003  0.399
O  -0.000  1.332  -0.595
O  -0.000  -1.341  -0.598
    3
step  231
Ti  0.000  0.002  0.399
O  -0.000  1.334  -0.595
O  -0.000  -1.340  -0.597
    3
step  232
Ti  0.000  0.001  0.398
O  -0.000  1.336  -0.596
O  -0.000  -1.338  -0.596
    3
step  233
Ti  0.000  -0.001  0.398
O  -0.000  1.338  -0.596
O  -0.000  -1.336  -0.594
    3
step  234
Ti  -0.000  -0.002  0.397
O  -0.000  1.339  -0.596
O  -0.000  -1.334  -0.592
    3
step  235
Ti  -0.000  -0.003  0.396
O  -0.000  1.341  -0.595
O  -0.000  -1.332  -0.590
    3
step  236
Ti  0.000  -0.004  0.395
O  -0.000  1.342  -0.594
O  -0.000  -1.330  -0.588
    3
step  237
Ti  -0.000  -0.005  0.394
O  -0.000  1.342  -0.593
O  -0.000  -1.328  -0.585
    3
step  238
Ti  0.000  -0.006  0.392
O  -0.000  1.343  -0.592
O  -0.000  -1.326  -0.582
    3
step  239
Ti  -0.000  -0.006  0.391
O  -0.000  1.343  -0.590
O  -0.000  -1.324  -0.580
    3
step  240
Ti  0.000  -0.007  0.389
O  -0.000  1.343  -0.588
O  -0.000  -1.323  -0.577
    3
step  241
Ti  0.000  -0.007  0.388
O  -0.000  1.344  -0.586
O  -0.000  -1.322  -0.575
    3
step  242
Ti  -0.000  -0.007  0.386
O  -0.000  1.344  -0.584
O  -0.000  -1.323  -0.573
    3
step  243
Ti  -0.000  -0.007  0.385
O  -0.000  1.344  -0.581
O  -0.000  -1.323  -0.571
    3
step  244
Ti  -0.000  -0.006  0.384
O  -0.000  1.344  -0.579
O  -0.000  -1.325  -0.569
    3
step  245
Ti  -0.000  -0.006  0.383
O  -0.000  1.344  -0.577
O  -0.000  -1.327  -0.568
    3
step  246
Ti  -0.000  -0.005  0.382
O  -0.000  1.344  -0.575
O  -0.000  -1.329  -0.567
    3
step  247
Ti  0.000  -0.004  0.381
O  -0.000  1.344  -0.573
O  -0.000  -1.333  -0.567
    3
step  248
Ti  -0.000  -0.003  0.380
O  -0.000  1.345  -0.571
O  -0.000  -1.337  -0.567
    3
step  249
Ti  -0.000  -0.001  0.380
O  -0.000  1.345  -0.570
O  -0.000  -1.341  -0.567
    3
step  250
Ti  -0.000  -0.000  0.379
O  -0.000  1.346  -0.568
O  -0.000  -1.346  -0.567
    3
step  251
Ti  -0.000  0.001  0.379
O  -0.000  1.347  -0.567
O  -0.000  -1.351  -0.568
    3
step  252
Ti  -0.000  0.002  0.379
O  -0.000  1.349  -0.566
O  -0.000  -1.356  -0.568
    3
step  253
Ti  -0.000  0.003  0.379
O  -0.000  1.350  -0.565
O  -0.000  -1.361  -0.569
    3
step  254
Ti  -0.000  0.004  0.379
O  -0.000  1.352  -0.564
O  -0.000  -1.365  -0.569
    3
step  255
Ti  -0.000  0.005  0.379
O  -0.000  1.354  -0.563
O  -0.000  -1.370  -0.570
    3
step  256
Ti  -0.000  0.006  0.378
O  -0.000  1.357  -0.562
O  -0.000  -1.374  -0.570
    3
step  257
Ti  -0.000  0.006  0.378
O  -0.000  1.359  -0.561
O  -0.000  -1.378  -0.570
    3
step  258
Ti  -0.000  0.006  0.378
O  -0.000  1.362  -0.561
O  -0.000  -1.382  -0.569
    3
step  259
Ti  -0.000  0.007  0.377
O  -0.000  1.365  -0.560
O  -0.000  -1.385  -0.568
    3
step  260
Ti  -0.000  0.006  0.376
O  -0.000  1.368  -0.559
O  -0.000  -1.387  -0.567
    3
step  261
Ti  0.000  0.006  0.376
O  -0.000  1.371  -0.558
O  -0.000  -1.389  -0.566
    3
step  262
Ti  -0.000  0.006  0.375
O  -0.000  1.373  -0.557
O  -0.000  -1.390  -0.564
    3
step  263
Ti  0.000  0.005  0.374
O  -0.000  1.376  -0.556
O  -0.000  -1.391  -0.563
    3
step  264
Ti  0.000  0.004  0.373
O  -0.000  1.379  -0.555
O  -0.000  -1.391  -0.560
    3
step  265
Ti  -0.000  0.003  0.372
O  -0.000  1.381  -0.554
O  -0.000  -1.391  -0.558
    3
step  266
Ti  -0.000  0.002  0.371
O  -0.000  1.383  -0.553
O  -0.000  -1.390  -0.556
    3
step  267
Ti  0.000  0.001  0.369
O  -0.000  1.385  -0.552
O  -0.000  -1.389  -0.553
    3
step  268
Ti  -0.000  0.000  0.368
O  -0.000  1.387  -0.551
O  -0.000  -1.387  -0.550
    3
step  269
Ti  -0.000  -0.001  0.367
O  -0.000  1.388  -0.550
O  -0.000  -1.385  -0.548
    3
step  270
Ti  -0.000  -0.002  0.366
O  -0.000  1.390  -0.549
O  -0.000  -1.383  -0.545
    3
step  271
Ti  -0.000  -0.003  0.365
O  -0.000  1.391  -0.549
O  -0.000  -1.381  -0.543
    3
step  272
Ti  -0.000  -0.004  0.364
O  -0.000  1.392  -0.548
O  -0.000  -1.379  -0.540
    3
step  273
Ti  -0.000  -0.005  0.363
O  -0.000  1.393  -0.547
O  -0.000  -1.377  -0.538
    3
step  274
Ti  -0.000  -0.006  0.362
O  -0.000  1.394  -0.546
O  -0.000  -1.375  -0.536
    3
step  275
Ti  -0.000  -0.007  0.361
O  -0.000  1.395  -0.546
O  -0.000  -1.374  -0.535
    3
step  276
Ti  0.000  -0.007  0.360
O  -0.000  1.395  -0.545
O  -0.000  -1.374  -0.533
    3
step  277
Ti  0.000  -0.007  0.360
O  -0.000  1.395  -0.545
O  -0.000  -1.374  -0.533
    3
step  278
Ti  0.000  -0.007  0.360
O  -0.000  1.396  -0.544
O  -0.000  -1.374  -0.532
    3
step  279
Ti  -0.000  -0.007  0.360
O  -0.000  1.396  -0.544
O  -0.000  -1.375  -0.533
    3
step  280
Ti  -0.000  -0.006  0.360
O  -0.000  1.395  -0.544
O  -0.000  -1.376  -0.533
    3
step  281
Ti  0.000  -0.006  0.360
O  -0.000  1.395  -0.544
O  -0.000  -1.377  -0.534
    3
step  282
Ti  -0.000  -0.005  0.361
O  -0.000  1.394  -0.544
O  -0.000  -1.379  -0.536
    3
step  283
Ti  -0.000  -0.004  0.361
O  -0.000  1.393  -0.544
O  -0.000  -1.382  -0.537
    3
step  284
Ti  -0.000  -0.002  0.362
O  -0.000  1.391  -0.544
O  -0.000  -1.384  -0.540
    3
step  285
Ti  0.000  -0.001  0.363
O  -0.000  1.390  -0.545
O  -0.000  -1.387  -0.542
    3
step  286
Ti  0.000  0.000  0.364
O  -0.000  1.388  -0.545
O  -0.000  -1.389  -0.544
    3
step  287
Ti  -0.000  0.002  0.365
O  -0.000  1.386  -0.545
O  -0.000  -1.392  -0.547
    3
step  288
Ti  -0.000  0.003  0.366
O  -0.000  1.384  -0.546
O  -0.000  -1.394  -0.549
    3
step  289
Ti  -0.000  0.004  0.367
O  -0.000  1.382  -0.547
O  -0.000  -1.395  -0.552
    3
step  290
Ti  -0.000  0.006  0.368
O  -0.000  1.380  -0.547
O  -0.000  -1.397  -0.554
    3
step  291
Ti  -0.000  0.007  0.369
O  -0.000  1.378  -0.548
O  -0.000  -1.397  -0.556
    3
step  292
Ti  -0.000  0.007  0.370
O  -0.000  1.376  -0.549
O  -0.000  -1.398  -0.558
    3
step  293
Ti  -0.000  0.008  0.371
O  -0.000  1.374  -0.550
O  -0.000  -1.397  -0.560
    3
step  294
Ti  -0.000  0.008  0.372
O  -0.000  1.372  -0.551
O  -0.000  -1.397  -0.562
    3
step  295
Ti  -0.000  0.009  0.373
O  -0.000  1.370  -0.552
O  -0.000  -1.395  -0.563
    3
step  296
Ti  -0.000  0.008  0.373
O  -0.000  1.368  -0.553
O  -0.000  -1.393  -0.564
    3
step  297
Ti  0.000  0.008  0.374
O  -0.000  1.366  -0.554
O  -0.000  -1.391  -0.565
    3
step  298
Ti  0.000  0.008  0.374
O  -0.000  1.365  -0.555
O  -0.000  -1.387  -0.565
    3
step  299
Ti  0.000  0.007  0.375
O  -0.000  1.363  -0.556
O  -0.000  -1.384  -0.565
    3
step  300
Ti  -0.000  0.006  0.375
O  -0.000  1.362  -0.558
O  -0.000  -1.380  -0.565
    3
step  301
Ti  -0.000  0.005  0.376
O  -0.000  1.361  -0.559
O  -0.000  -1.375  -0.565
    3
step  302
Ti  0.000  0.004  0.376
O  -0.000  1.360  -0.560
O  -0.000  -1.371  -0.565
    3
step  303
Ti  -0.000  0.002  0.376
O  -0.000  1.359  -0.562
O  -0.000  -1.366  -0.564
    3
step  304
Ti  -0.000  0.001  0.377
O  -0.000  1.358  -0.563
O  -0.000  -1.361  -0.563
    3
step  305
Ti  -0.000  -0.000  0.377
O  -0.000  1.357  -0.565
O  -0.000  -1.356  -0.563
    3
step  306
Ti  0.000  -0.002  0.377
O  -0.000  1.356  -0.566
O  -0.000  -1.351  -0.563
    3
step  307
Ti  0.000  -0.003  0.378
O  -0.000  1.355  -0.568
O  -0.000  -1.346  -0.562
    3
step  308
Ti  -0.000  -0.004  0.378
O  -0.000  1.354  -0.569
O  -0.000  -1.342  -0.563
    3
step  309
Ti  -0.000  -0.005  0.379
O  -0.000  1.353  -0.571
O  -0.000  -1.339  -0.563
    3
step  310
Ti  -0.000  -0.005  0.380
O  -0.000  1.352  -0.572
O  -0.000  -1.336  -0.564
    3
step  311
Ti  -0.000  -0.006  0.381
O  -0.000  1.351  -0.574
O  -0.000  -1.334  -0.565
    3
step  312
Ti  -0.000  -0.006  0.382
O  -0.000  1.349  -0.575
O  -0.000  -1.333  -0.566
    3
step  313
Ti  -0.000  -0.005  0.383
O  -0.000  1.348  -0.577
O  -0.000  -1.332  -0.568
    3
step  314
Ti  0.000  -0.005  0.384
O  -0.000  1.346  -0.578
O  -0.000  -1.331  -0.570
    3
step  315
Ti  0.000  -0.005  0.385
O  -0.000  1.345  -0.580
O  -0.000  -1.331  -0.572
    3
step  316
Ti  -0.000  -0.004  0.386
O  -0.000  1.343  -0.581
O  -0.000  -1.332  -0.574
    3
step  317
Ti  -0.000  -0.003  0.387
O  -0.000  1.341  -0.582
O  -0.000  -1.332  -0.577
    3
step  318
Ti  -0.000  -0.002  0.389
O  -0.000  1.339  -0.583
O  -0.000  -1.334  -0.579
    3
step  319
Ti  -0.000  -0.001  0.390
O  -0.000  1.338  -0.584
O  -0.000  -1.335  -0.582
    3
step  320
Ti  -0.000  0.000  0.391
O  -0.000  1.336  -0.585
O  -0.000  -1.337  -0.585
    3
step  321
Ti  -0.000  0.002  0.392
O  -0.000  1.334  -0.586
O  -0.000  -1.339  -0.587
    3
step  322
Ti  -0.000  0.003  0.393
O  -0.000  1.332  -0.586
O  -0.000  -1.340  -0.590
    3
step  323
Ti  -0.000  0.004  0.394
O  -0.000  1.330  -0.587
O  -0.000  -1.342  -0.592
    3
step  324
Ti  0.000  0.005  0.395
O  -0.000  1.329  -0.587