   12
step    0
Ti  -1.886  0.540  0.776
Ti  2.024  -0.386  0.454
O  0.057  0.064  0.508
O  -2.417  0.879  2.245
O  2.871  -0.372  1.810
O  1.218  -2.038  -0.168
Ti  0.208  1.246  -1.060
O  -0.224  -0.250  -2.002
Ti  -0.400  -1.461  -0.654
O  -2.008  -1.274  0.098
O  -1.281  1.969  -0.389
O  1.946  1.205  -0.655
   12
step    1
Ti  -1.887  0.539  0.774
Ti  2.023  -0.386  0.454
O  0.064  0.059  0.511
O  -2.411  0.877  2.245
O  2.873  -0.372  1.818
O  1.219  -2.040  -0.162
Ti  0.204  1.244  -1.062
O  -0.227  -0.248  -2.005
Ti  -0.399  -1.457  -0.654
O  -2.010  -1.269  0.096
O  -1.279  1.967  -0.386
O  1.945  1.207  -0.658
   12
step    2
Ti  -1.888  0.537  0.772
Ti  2.022  -0.386  0.454
O  0.070  0.054  0.515
O  -2.405  0.875  2.245
O  2.879  -0.372  1.826
O  1.221  -2.041  -0.156
Ti  0.201  1.241  -1.064
O  -0.230  -0.245  -2.007
Ti  -0.398  -1.453  -0.654
O  -2.013  -1.264  0.094
O  -1.277  1.965  -0.383
O  1.944  1.210  -0.661
   12
step    3
Ti  -1.891  0.536  0.769
Ti  2.021  -0.385  0.454
O  0.076  0.050  0.519
O  -2.397  0.873  2.245
O  2.886  -0.371  1.835
O  1.222  -2.043  -0.150
Ti  0.198  1.238  -1.065
O  -0.232  -0.243  -2.010
Ti  -0.397  -1.449  -0.655
O  -2.017  -1.260  0.091
O  -1.275  1.962  -0.380
O  1.943  1.213  -0.664
   12
step    4
Ti  -1.895  0.534  0.765
Ti  2.020  -0.385  0.455
O  0.082  0.046  0.523
O  -2.387  0.871  2.245
O  2.895  -0.371  1.844
O  1.224  -2.044  -0.143
Ti  0.196  1.236  -1.066
O  -0.234  -0.240  -2.013
Ti  -0.396  -1.445  -0.655
O  -2.022  -1.255  0.088
O  -1.272  1.960  -0.377
O  1.941  1.215  -0.666
   12
step    5
Ti  -1.900  0.532  0.761
Ti  2.019  -0.385  0.456
O  0.087  0.042  0.528
O  -2.376  0.869  2.244
O  2.905  -0.371  1.853
O  1.226  -2.045  -0.137
Ti  0.194  1.233  -1.068
O  -0.235  -0.238  -2.015
Ti  -0.395  -1.442  -0.656
O  -2.027  -1.251  0.085
O  -1.270  1.958  -0.374
O  1.938  1.218  -0.667
   12
step    6
Ti  -1.906  0.531  0.756
Ti  2.018  -0.385  0.458
O  0.092  0.038  0.532
O  -2.363  0.868  2.244
O  2.915  -0.370  1.862
O  1.227  -2.045  -0.130
Ti  0.192  1.231  -1.069
O  -0.236  -0.235  -2.018
Ti  -0.393  -1.438  -0.657
O  -2.033  -1.248  0.081
O  -1.267  1.955  -0.371
O  1.935  1.221  -0.669
   12
step    7
Ti  -1.913  0.529  0.751
Ti  2.017  -0.385  0.460
O  0.095  0.034  0.537
O  -2.349  0.867  2.244
O  2.925  -0.370  1.870
O  1.229  -2.046  -0.124
Ti  0.190  1.228  -1.070
O  -0.237  -0.233  -2.020
Ti  -0.392  -1.434  -0.658
O  -2.038  -1.244  0.077
O  -1.265  1.953  -0.369
O  1.931  1.224  -0.670
   12
step    8
Ti  -1.921  0.527  0.745
Ti  2.017  -0.385  0.463
O  0.099  0.031  0.542
O  -2.332  0.866  2.245
O  2.935  -0.370  1.878
O  1.230  -2.046  -0.118
Ti  0.189  1.226  -1.071
O  -0.237  -0.232  -2.022
Ti  -0.390  -1.431  -0.659
O  -2.043  -1.242  0.073
O  -1.262  1.951  -0.366
O  1.927  1.227  -0.670
   12
step    9
Ti  -1.930  0.525  0.739
Ti  2.016  -0.385  0.467
O  0.101  0.028  0.547
O  -2.314  0.866  2.245
O  2.942  -0.370  1.884
O  1.232  -2.045  -0.111
Ti  0.188  1.224  -1.072
O  -0.237  -0.230  -2.025
Ti  -0.388  -1.427  -0.660
O  -2.047  -1.239  0.068
O  -1.259  1.949  -0.364
O  1.922  1.230  -0.671
   12
step   10
Ti  -1.940  0.523  0.732
Ti  2.016  -0.385  0.471
O  0.102  0.026  0.552
O  -2.293  0.865  2.246
O  2.948  -0.370  1.889
O  1.233  -2.045  -0.105
Ti  0.188  1.223  -1.073
O  -0.236  -0.230  -2.027
Ti  -0.386  -1.424  -0.661
O  -2.049  -1.238  0.063
O  -1.256  1.946  -0.362
O  1.916  1.233  -0.671
   12
step   11
Ti  -1.950  0.521  0.725
Ti  2.016  -0.384  0.476
O  0.103  0.023  0.557
O  -2.269  0.865  2.248
O  2.950  -0.370  1.893
O  1.234  -2.044  -0.099
Ti  0.188  1.221  -1.073
O  -0.235  -0.229  -2.029
Ti  -0.384  -1.421  -0.662
O  -2.050  -1.236  0.058
O  -1.253  1.944  -0.360
O  1.910  1.236  -0.670
   12
step   12
Ti  -1.960  0.520  0.717
Ti  2.016  -0.384  0.482
O  0.102  0.021  0.561
O  -2.243  0.865  2.249
O  2.949  -0.370  1.896
O  1.235  -2.043  -0.094
Ti  0.188  1.220  -1.074
O  -0.233  -0.229  -2.031
Ti  -0.382  -1.418  -0.662
O  -2.049  -1.236  0.052
O  -1.250  1.942  -0.358
O  1.903  1.238  -0.670
   12
step   13
Ti  -1.971  0.518  0.709
Ti  2.016  -0.384  0.488
O  0.101  0.020  0.566
O  -2.215  0.865  2.252
O  2.945  -0.370  1.898
O  1.235  -2.042  -0.089
Ti  0.189  1.219  -1.074
O  -0.232  -0.230  -2.033
Ti  -0.380  -1.415  -0.663
O  -2.047  -1.236  0.046
O  -1.247  1.941  -0.356
O  1.896  1.241  -0.669
   12
step   14
Ti  -1.982  0.516  0.701
Ti  2.016  -0.384  0.495
O  0.099  0.019  0.570
O  -2.184  0.865  2.255
O  2.938  -0.371  1.898
O  1.236  -2.040  -0.083
Ti  0.190  1.218  -1.074
O  -0.230  -0.232  -2.035
Ti  -0.378  -1.412  -0.664
O  -2.043  -1.236  0.039
O  -1.245  1.939  -0.354
O  1.889  1.243  -0.668
   12
step   15
Ti  -1.993  0.515  0.693
Ti  2.016  -0.384  0.502
O  0.095  0.018  0.575
O  -2.151  0.865  2.258
O  2.928  -0.371  1.897
O  1.236  -2.038  -0.079
Ti  0.191  1.217  -1.075
O  -0.227  -0.234  -2.038
Ti  -0.375  -1.410  -0.664
O  -2.037  -1.238  0.033
O  -1.242  1.937  -0.353
O  1.882  1.246  -0.666
   12
step   16
Ti  -2.005  0.514  0.684
Ti  2.015  -0.384  0.510
O  0.091  0.018  0.578
O  -2.117  0.866  2.261
O  2.917  -0.371  1.895
O  1.236  -2.036  -0.074
Ti  0.193  1.216  -1.075
O  -0.225  -0.236  -2.040
Ti  -0.373  -1.407  -0.664
O  -2.030  -1.240  0.026
O  -1.240  1.936  -0.352
O  1.875  1.248  -0.664
   12
step   17
Ti  -2.016  0.513  0.675
Ti  2.015  -0.384  0.518
O  0.086  0.017  0.582
O  -2.083  0.866  2.264
O  2.905  -0.371  1.892
O  1.236  -2.034  -0.070
Ti  0.194  1.216  -1.075
O  -0.223  -0.239  -2.042
Ti  -0.370  -1.405  -0.665
O  -2.023  -1.242  0.019
O  -1.238  1.934  -0.351
O  1.869  1.250  -0.662
   12
step   18
Ti  -2.027  0.512  0.667
Ti  2.014  -0.385  0.526
O  0.081  0.018  0.585
O  -2.050  0.866  2.268
O  2.895  -0.372  1.890
O  1.235  -2.031  -0.066
Ti  0.196  1.215  -1.075
O  -0.220  -0.242  -2.045
Ti  -0.368  -1.403  -0.665
O  -2.015  -1.245  0.012
O  -1.236  1.933  -0.349
O  1.863  1.253  -0.659
   12
step   19
Ti  -2.039  0.512  0.659
Ti  2.012  -0.385  0.534
O  0.074  0.018  0.587
O  -2.018  0.867  2.270
O  2.887  -0.373  1.887
O  1.235  -2.029  -0.062
Ti  0.198  1.215  -1.075
O  -0.218  -0.246  -2.048
Ti  -0.365  -1.401  -0.665
O  -2.007  -1.248  0.005
O  -1.234  1.932  -0.348
O  1.858  1.254  -0.656
   12
step   20
Ti  -2.049  0.513  0.651
Ti  2.011  -0.386  0.542
O  0.067  0.019  0.589
O  -1.988  0.867  2.272
O  2.882  -0.374  1.884
O  1.234  -2.026  -0.059
Ti  0.201  1.215  -1.075
O  -0.216  -0.250  -2.050
Ti  -0.362  -1.400  -0.665
O  -1.999  -1.252  -0.002
O  -1.233  1.932  -0.346
O  1.853  1.256  -0.652
   12
step   21
Ti  -2.060  0.513  0.643
Ti  2.008  -0.386  0.549
O  0.060  0.020  0.590
O  -1.961  0.867  2.273
O  2.881  -0.375  1.882
O  1.233  -2.023  -0.056
Ti  0.203  1.215  -1.075
O  -0.214  -0.254  -2.053
Ti  -0.360  -1.398  -0.664
O  -1.992  -1.256  -0.008
O  -1.231  1.931  -0.345
O  1.849  1.257  -0.649
   12
step   22
Ti  -2.070  0.515  0.637
Ti  2.005  -0.387  0.556
O  0.052  0.022  0.591
O  -1.936  0.867  2.273
O  2.883  -0.376  1.880
O  1.232  -2.021  -0.053
Ti  0.205  1.215  -1.075
O  -0.212  -0.259  -2.056
Ti  -0.357  -1.397  -0.664
O  -1.985  -1.261  -0.014
O  -1.230  1.931  -0.343
O  1.846  1.258  -0.645
   12
step   23
Ti  -2.080  0.517  0.631
Ti  2.002  -0.388  0.562
O  0.044  0.024  0.591
O  -1.914  0.867  2.272
O  2.889  -0.378  1.879
O  1.231  -2.018  -0.051
Ti  0.207  1.215  -1.075
O  -0.210  -0.263  -2.060
Ti  -0.355  -1.396  -0.663
O  -1.980  -1.265  -0.019
O  -1.230  1.931  -0.341
O  1.844  1.259  -0.640
   12
step   24
Ti  -2.088  0.519  0.626
Ti  1.998  -0.389  0.567
O  0.035  0.026  0.590
O  -1.894  0.867  2.270
O  2.898  -0.380  1.878
O  1.230  -2.016  -0.049
Ti  0.209  1.215  -1.075
O  -0.209  -0.267  -2.063
Ti  -0.352  -1.395  -0.663
O  -1.975  -1.270  -0.023
O  -1.230  1.931  -0.339
O  1.843  1.260  -0.636
   12
step   25
Ti  -2.096  0.522  0.622
Ti  1.994  -0.391  0.571
O  0.027  0.028  0.589
O  -1.877  0.866  2.266
O  2.909  -0.382  1.878
O  1.230  -2.013  -0.047
Ti  0.210  1.215  -1.075
O  -0.207  -0.271  -2.067
Ti  -0.350  -1.394  -0.662
O  -1.972  -1.275  -0.027
O  -1.230  1.931  -0.336
O  1.842  1.260  -0.631
   12
step   26
Ti  -2.102  0.525  0.620
Ti  1.989  -0.392  0.575
O  0.018  0.031  0.587
O  -1.863  0.865  2.261
O  2.922  -0.384  1.878
O  1.229  -2.011  -0.046
Ti  0.212  1.215  -1.075
O  -0.206  -0.275  -2.070
Ti  -0.347  -1.394  -0.661
O  -1.969  -1.280  -0.030
O  -1.231  1.931  -0.334
O  1.843  1.260  -0.626
   12
step   27
Ti  -2.107  0.528  0.618
Ti  1.984  -0.394  0.578
O  0.010  0.035  0.584
O  -1.851  0.864  2.255
O  2.935  -0.387  1.878
O  1.229  -2.009  -0.044
Ti  0.213  1.215  -1.076
O  -0.205  -0.279  -2.074
Ti  -0.345  -1.393  -0.660
O  -1.966  -1.285  -0.032
O  -1.232  1.932  -0.331
O  1.845  1.260  -0.621
   12
step   28
Ti  -2.110  0.532  0.618
Ti  1.979  -0.395  0.581
O  0.002  0.038  0.581
O  -1.842  0.862  2.248
O  2.948  -0.390  1.877
O  1.229  -2.007  -0.044
Ti  0.214  1.215  -1.076
O  -0.205  -0.283  -2.078
Ti  -0.343  -1.393  -0.659
O  -1.964  -1.290  -0.033
O  -1.234  1.932  -0.329
O  1.847  1.259  -0.616
   12
step   29
Ti  -2.112  0.537  0.619
Ti  1.973  -0.396  0.582
O  -0.006  0.043  0.577
O  -1.835  0.861  2.240
O  2.960  -0.393  1.876
O  1.230  -2.005  -0.043
Ti  0.214  1.215  -1.077
O  -0.204  -0.286  -2.082
Ti  -0.341  -1.394  -0.658
O  -1.962  -1.295  -0.033
O  -1.236  1.933  -0.326
O  1.850  1.259  -0.611
   12
step   30
Ti  -2.112  0.541  0.621
Ti  1.967  -0.398  0.583
O  -0.014  0.047  0.572
O  -1.831  0.859  2.231
O  2.970  -0.397  1.874
O  1.231  -2.004  -0.043
Ti  0.214  1.215  -1.078
O  -0.204  -0.289  -2.086
Ti  -0.339  -1.394  -0.657
O  -1.959  -1.300  -0.032
O  -1.239  1.933  -0.323
O  1.853  1.258  -0.605
   12
step   31
Ti  -2.110  0.546  0.624
Ti  1.962  -0.399  0.584
O  -0.021  0.052  0.568
O  -1.829  0.857  2.221
O  2.979  -0.400  1.871
O  1.232  -2.003  -0.043
Ti  0.213  1.215  -1.079
O  -0.204  -0.292  -2.089
Ti  -0.338  -1.394  -0.656
O  -1.957  -1.304  -0.030
O  -1.242  1.934  -0.321
O  1.857  1.256  -0.600
   12
step   32
Ti  -2.107  0.550  0.628
Ti  1.956  -0.401  0.584
O  -0.027  0.056  0.562
O  -1.830  0.855  2.211
O  2.986  -0.404  1.867
O  1.234  -2.001  -0.043
Ti  0.213  1.215  -1.080
O  -0.204  -0.295  -2.093
Ti  -0.337  -1.395  -0.655
O  -1.953  -1.309  -0.027
O  -1.245  1.935  -0.319
O  1.861  1.254  -0.595
   12
step   33
Ti  -2.101  0.555  0.633
Ti  1.950  -0.402  0.584
O  -0.033  0.061  0.557
O  -1.833  0.853  2.201
O  2.991  -0.409  1.862
O  1.237  -2.001  -0.044
Ti  0.212  1.214  -1.081
O  -0.205  -0.297  -2.096
Ti  -0.336  -1.396  -0.654
O  -1.949  -1.313  -0.022
O  -1.248  1.936  -0.317
O  1.866  1.252  -0.590
   12
step   34
Ti  -2.094  0.560  0.638
Ti  1.944  -0.403  0.584
O  -0.038  0.066  0.551
O  -1.839  0.851  2.191
O  2.992  -0.413  1.855
O  1.240  -2.000  -0.045
Ti  0.210  1.214  -1.082
O  -0.205  -0.298  -2.099
Ti  -0.335  -1.397  -0.653
O  -1.945  -1.318  -0.017
O  -1.252  1.938  -0.315
O  1.870  1.250  -0.585
   12
step   35
Ti  -2.086  0.565  0.644
Ti  1.938  -0.404  0.583
O  -0.043  0.071  0.544
O  -1.847  0.849  2.182
O  2.992  -0.418  1.848
O  1.243  -1.999  -0.046
Ti  0.209  1.214  -1.083
O  -0.205  -0.300  -2.101
Ti  -0.335  -1.398  -0.652
O  -1.940  -1.322  -0.012
O  -1.255  1.940  -0.314
O  1.874  1.247  -0.580
   12
step   36
Ti  -2.076  0.570  0.650
Ti  1.932  -0.405  0.582
O  -0.047  0.076  0.538
O  -1.858  0.848  2.174
O  2.989  -0.422  1.839
O  1.247  -1.999  -0.047
Ti  0.207  1.213  -1.085
O  -0.206  -0.300  -2.103
Ti  -0.335  -1.399  -0.651
O  -1.934  -1.326  -0.005
O  -1.259  1.942  -0.314
O  1.878  1.244  -0.576
   12
step   37
Ti  -2.065  0.575  0.655
Ti  1.926  -0.405  0.581
O  -0.051  0.081  0.531
O  -1.871  0.847  2.168
O  2.985  -0.427  1.830
O  1.250  -1.999  -0.048
Ti  0.206  1.213  -1.086
O  -0.206  -0.301  -2.105
Ti  -0.335  -1.401  -0.650
O  -1.928  -1.331  0.002
O  -1.263  1.945  -0.313
O  1.882  1.240  -0.572
   12
step   38
Ti  -2.052  0.579  0.660
Ti  1.920  -0.406  0.581
O  -0.053  0.086  0.524
O  -1.886  0.847  2.164
O  2.979  -0.432  1.821
O  1.254  -2.000  -0.049
Ti  0.204  1.213  -1.087
O  -0.206  -0.301  -2.106
Ti  -0.335  -1.403  -0.650
O  -1.922  -1.335  0.010
O  -1.267  1.948  -0.314
O  1.886  1.237  -0.567
   12
step   39
Ti  -2.039  0.582  0.665
Ti  1.914  -0.406  0.580
O  -0.056  0.091  0.516
O  -1.903  0.847  2.163
O  2.972  -0.437  1.812
O  1.259  -2.000  -0.051
Ti  0.202  1.213  -1.088
O  -0.205  -0.300  -2.107
Ti  -0.335  -1.405  -0.649
O  -1.916  -1.339  0.018
O  -1.271  1.951  -0.315
O  1.889  1.233  -0.564
   12
step   40
Ti  -2.025  0.586  0.669
Ti  1.908  -0.406  0.579
O  -0.057  0.095  0.509
O  -1.922  0.847  2.165
O  2.965  -0.442  1.803
O  1.263  -2.002  -0.052
Ti  0.200  1.213  -1.089
O  -0.204  -0.299  -2.107
Ti  -0.335  -1.407  -0.649
O  -1.910  -1.343  0.026
O  -1.274  1.955  -0.317
O  1.891  1.229  -0.560
   12
step   41
Ti  -2.010  0.588  0.671
Ti  1.902  -0.405  0.578
O  -0.059  0.100  0.502
O  -1.943  0.849  2.170
O  2.959  -0.447  1.795
O  1.267  -2.003  -0.053
Ti  0.199  1.213  -1.090
O  -0.203  -0.298  -2.107
Ti  -0.335  -1.409  -0.650
O  -1.906  -1.347  0.035
O  -1.278  1.959  -0.319
O  1.893  1.225  -0.557
   12
step   42
Ti  -1.995  0.590  0.673
Ti  1.896  -0.404  0.577
O  -0.059  0.104  0.495
O  -1.966  0.851  2.178
O  2.954  -0.451  1.787
O  1.271  -2.005  -0.055
Ti  0.197  1.213  -1.091
O  -0.201  -0.296  -2.106
Ti  -0.335  -1.411  -0.650
O  -1.902  -1.351  0.044
O  -1.281  1.964  -0.323
O  1.894  1.221  -0.553
   12
step   43
Ti  -1.980  0.592  0.674
Ti  1.889  -0.403  0.577
O  -0.059  0.109  0.488
O  -1.991  0.854  2.189
O  2.951  -0.456  1.781
O  1.275  -2.007  -0.056
Ti  0.196  1.213  -1.091
O  -0.199  -0.294  -2.105
Ti  -0.335  -1.414  -0.651
O  -1.900  -1.356  0.053
O  -1.284  1.970  -0.327
O  1.895  1.217  -0.550
   12
step   44
Ti  -1.964  0.593  0.673
Ti  1.882  -0.402  0.576
O  -0.059  0.113  0.481
O  -2.018  0.857  2.203
O  2.949  -0.460  1.775
O  1.279  -2.010  -0.057
Ti  0.195  1.214  -1.092
O  -0.196  -0.292  -2.104
Ti  -0.335  -1.417  -0.652
O  -1.899  -1.360  0.062
O  -1.286  1.976  -0.332
O  1.895  1.213  -0.547
   12
step   45
Ti  -1.949  0.593  0.672
Ti  1.876  -0.400  0.576
O  -0.059  0.117  0.475
O  -2.045  0.860  2.219
O  2.950  -0.465  1.771
O  1.283  -2.012  -0.059
Ti  0.194  1.214  -1.093
O  -0.193  -0.289  -2.103
Ti  -0.335  -1.420  -0.654
O  -1.899  -1.364  0.071
O  -1.289  1.982  -0.339
O  1.895  1.209  -0.544
   12
step   46
Ti  -1.935  0.593  0.671
Ti  1.869  -0.398  0.576
O  -0.057  0.120  0.469
O  -2.073  0.864  2.236
O  2.952  -0.469  1.767
O  1.287  -2.015  -0.060
Ti  0.193  1.215  -1.093
O  -0.189  -0.286  -2.101
Ti  -0.335  -1.423  -0.656
O  -1.901  -1.368  0.080
O  -1.291  1.989  -0.346
O  1.894  1.205  -0.542
   12
step   47
Ti  -1.920  0.592  0.669
Ti  1.862  -0.396  0.575
O  -0.056  0.124  0.464
O  -2.100  0.867  2.253
O  2.956  -0.474  1.764
O  1.290  -2.018  -0.061
Ti  0.192  1.216  -1.093
O  -0.185  -0.282  -2.100
Ti  -0.335  -1.426  -0.658
O  -1.904  -1.372  0.089
O  -1.293  1.996  -0.354
O  1.892  1.202  -0.539
   12
step   48
Ti  -1.906  0.591  0.668
Ti  1.855  -0.394  0.575
O  -0.054  0.127  0.459
O  -2.127  0.871  2.271
O  2.960  -0.478  1.762
O  1.293  -2.022  -0.062
Ti  0.192  1.217  -1.094
O  -0.180  -0.278  -2.099
Ti  -0.335  -1.430  -0.660
O  -1.907  -1.376  0.097
O  -1.295  2.003  -0.362
O  1.890  1.198  -0.537
   12
step   49
Ti  -1.893  0.590  0.666
Ti  1.849  -0.391  0.576
O  -0.052  0.130  0.454
O  -2.152  0.874  2.289
O  2.964  -0.482  1.760
O  1.296  -2.025  -0.064
Ti  0.192  1.219  -1.094
O  -0.176  -0.274  -2.098
Ti  -0.334  -1.434  -0.662
O  -1.911  -1.380  0.105
O  -1.296  2.010  -0.372
O  1.887  1.195  -0.536
   12
step   50
Ti  -1.881  0.588  0.665
Ti  1.843  -0.388  0.576
O  -0.050  0.132  0.451
O  -2.175  0.877  2.306
O  2.968  -0.486  1.758
O  1.298  -2.028  -0.065
Ti  0.192  1.221  -1.094
O  -0.171  -0.270  -2.098
Ti  -0.334  -1.438  -0.665
O  -1.915  -1.383  0.113
O  -1.298  2.018  -0.382
O  1.883  1.193  -0.535
   12
step   51
Ti  -1.870  0.586  0.665
Ti  1.837  -0.385  0.577
O  -0.047  0.134  0.448
O  -2.195  0.880  2.323
O  2.971  -0.490  1.757
O  1.299  -2.031  -0.066
Ti  0.192  1.223  -1.095
O  -0.165  -0.266  -2.099
Ti  -0.334  -1.442  -0.668
O  -1.919  -1.387  0.121
O  -1.300  2.025  -0.392
O  1.879  1.191  -0.534
   12
step   52
Ti  -1.860  0.584  0.665
Ti  1.831  -0.382  0.578
O  -0.044  0.135  0.446
O  -2.212  0.882  2.338
O  2.972  -0.493  1.757
O  1.300  -2.034  -0.068
Ti  0.192  1.225  -1.095
O  -0.160  -0.262  -2.101
Ti  -0.334  -1.447  -0.671
O  -1.922  -1.390  0.128
O  -1.301  2.032  -0.403
O  1.875  1.189  -0.533
   12
step   53
Ti  -1.851  0.582  0.666
Ti  1.826  -0.379  0.579
O  -0.041  0.136  0.444
O  -2.226  0.884  2.351
O  2.972  -0.496  1.756
O  1.300  -2.037  -0.069
Ti  0.193  1.228  -1.095
O  -0.154  -0.258  -2.103
Ti  -0.333  -1.451  -0.674
O  -1.926  -1.392  0.135
O  -1.303  2.038  -0.414
O  1.871  1.187  -0.533
   12
step   54
Ti  -1.843  0.580  0.668
Ti  1.821  -0.376  0.581
O  -0.038  0.136  0.444
O  -2.236  0.885  2.364
O  2.971  -0.499  1.755
O  1.299  -2.039  -0.071
Ti  0.194  1.231  -1.096
O  -0.148  -0.254  -2.107
Ti  -0.333  -1.456  -0.677
O  -1.928  -1.394  0.142
O  -1.305  2.044  -0.426
O  1.867  1.186  -0.534
   12
step   55
Ti  -1.837  0.578  0.671
Ti  1.817  -0.373  0.584
O  -0.034  0.136  0.444
O  -2.243  0.885  2.375
O  2.969  -0.502  1.755
O  1.297  -2.041  -0.073
Ti  0.195  1.234  -1.097
O  -0.141  -0.251  -2.112
Ti  -0.333  -1.461  -0.681
O  -1.929  -1.396  0.148
O  -1.307  2.050  -0.438
O  1.863  1.185  -0.534
   12
step   56
Ti  -1.832  0.576  0.674
Ti  1.813  -0.370  0.586
O  -0.031  0.135  0.445
O  -2.246  0.885  2.384
O  2.966  -0.504  1.755
O  1.294  -2.043  -0.074
Ti  0.196  1.237  -1.098
O  -0.134  -0.247  -2.118
Ti  -0.333  -1.465  -0.684
O  -1.930  -1.397  0.153
O  -1.310  2.054  -0.450
O  1.859  1.185  -0.535
   12
step   57
Ti  -1.828  0.574  0.678
Ti  1.809  -0.367  0.590
O  -0.028  0.133  0.446
O  -2.246  0.885  2.393
O  2.962  -0.506  1.755
O  1.291  -2.044  -0.076
Ti  0.197  1.241  -1.099
O  -0.127  -0.244  -2.126
Ti  -0.333  -1.470  -0.688
O  -1.930  -1.398  0.158
O  -1.313  2.058  -0.463
O  1.856  1.185  -0.536
   12
step   58
Ti  -1.826  0.572  0.683
Ti  1.806  -0.364  0.593
O  -0.026  0.132  0.449
O  -2.243  0.884  2.400
O  2.958  -0.508  1.755
O  1.286  -2.045  -0.078
Ti  0.198  1.245  -1.100
O  -0.120  -0.242  -2.135
Ti  -0.333  -1.475  -0.691
O  -1.929  -1.398  0.163
O  -1.317  2.061  -0.475
O  1.853  1.185  -0.537
   12
step   59
Ti  -1.826  0.571  0.688
Ti  1.803  -0.361  0.597
O  -0.023  0.130  0.452
O  -2.236  0.882  2.405
O  2.953  -0.510  1.756
O  1.281  -2.046  -0.080
Ti  0.200  1.248  -1.101
O  -0.112  -0.239  -2.145
Ti  -0.333  -1.480  -0.695
O  -1.928  -1.398  0.166
O  -1.321  2.062  -0.488
O  1.851  1.186  -0.537
   12
step   60
Ti  -1.827  0.569  0.694
Ti  1.801  -0.359  0.602
O  -0.021  0.127  0.455
O  -2.226  0.880  2.410
O  2.949  -0.512  1.757
O  1.275  -2.046  -0.082
Ti  0.201  1.252  -1.103
O  -0.105  -0.237  -2.156
Ti  -0.333  -1.485  -0.699
O  -1.926  -1.397  0.169
O  -1.325  2.063  -0.501
O  1.849  1.187  -0.538
   12
step   61
Ti  -1.829  0.568  0.701
Ti  1.799  -0.356  0.606
O  -0.020  0.124  0.459
O  -2.213  0.877  2.414
O  2.945  -0.513  1.759
O  1.269  -2.045  -0.084
Ti  0.203  1.257  -1.105
O  -0.096  -0.236  -2.169
Ti  -0.334  -1.490  -0.703
O  -1.923  -1.395  0.171
O  -1.330  2.062  -0.514
O  1.848  1.188  -0.539
   12
step   62
Ti  -1.833  0.568  0.708
Ti  1.798  -0.354  0.611
O  -0.019  0.122  0.464
O  -2.197  0.874  2.416
O  2.943  -0.515  1.762
O  1.262  -2.045  -0.086
Ti  0.205  1.261  -1.107
O  -0.088  -0.235  -2.182
Ti  -0.334  -1.494  -0.707
O  -1.921  -1.393  0.173
O  -1.335  2.060  -0.527
O  1.848  1.190  -0.539
   12
step   63
Ti  -1.838  0.567  0.716
Ti  1.797  -0.352  0.617
O  -0.019  0.119  0.469
O  -2.180  0.871  2.417
O  2.942  -0.516  1.765
O  1.254  -2.044  -0.089
Ti  0.207  1.265  -1.110
O  -0.079  -0.234  -2.196
Ti  -0.334  -1.499  -0.711
O  -1.918  -1.390  0.175
O  -1.341  2.057  -0.540
O  1.848  1.191  -0.539
   12
step   64
Ti  -1.845  0.567  0.724
Ti  1.796  -0.350  0.622
O  -0.020  0.116  0.475
O  -2.160  0.867  2.418
O  2.942  -0.517  1.769
O  1.246  -2.043  -0.091
Ti  0.208  1.269  -1.113
O  -0.070  -0.234  -2.212
Ti  -0.335  -1.503  -0.715
O  -1.915  -1.387  0.176
O  -1.347  2.053  -0.553
O  1.849  1.193  -0.539
   12
step   65
Ti  -1.852  0.567  0.732
Ti  1.795  -0.348  0.628
O  -0.022  0.114  0.480
O  -2.139  0.863  2.417
O  2.945  -0.518  1.774
O  1.238  -2.041  -0.093
Ti  0.210  1.273  -1.116
O  -0.061  -0.234  -2.227
Ti  -0.336  -1.507  -0.720
O  -1.911  -1.383  0.176
O  -1.354  2.048  -0.565
O  1.851  1.195  -0.539
   12
step   66
Ti  -1.860  0.568  0.740
Ti  1.795  -0.346  0.633
O  -0.024  0.112  0.486
O  -2.117  0.858  2.416
O  2.950  -0.520  1.780
O  1.230  -2.039  -0.095
Ti  0.212  1.276  -1.119
O  -0.052  -0.234  -2.243
Ti  -0.337  -1.510  -0.724
O  -1.908  -1.378  0.176
O  -1.362  2.042  -0.577
O  1.853  1.197  -0.538
   12
step   67
Ti  -1.869  0.568  0.749
Ti  1.795  -0.345  0.639
O  -0.027  0.110  0.492
O  -2.094  0.853  2.414
O  2.958  -0.521  1.787
O  1.221  -2.038  -0.097
Ti  0.213  1.280  -1.122
O  -0.043  -0.234  -2.258
Ti  -0.338  -1.513  -0.729
O  -1.905  -1.373  0.175
O  -1.370  2.035  -0.589
O  1.857  1.199  -0.537
   12
step   68
Ti  -1.878  0.569  0.758
Ti  1.795  -0.344  0.645
O  -0.031  0.108  0.498
O  -2.071  0.849  2.411
O  2.967  -0.523  1.794
O  1.213  -2.036  -0.099
Ti  0.215  1.283  -1.126
O  -0.034  -0.235  -2.273
Ti  -0.340  -1.516  -0.734
O  -1.902  -1.367  0.174
O  -1.380  2.027  -0.601
O  1.861  1.200  -0.536
   12
step   69
Ti  -1.888  0.570  0.767
Ti  1.796  -0.344  0.650
O  -0.036  0.107  0.503
O  -2.048  0.844  2.408
O  2.978  -0.525  1.801
O  1.204  -2.034  -0.101
Ti  0.216  1.286  -1.130
O  -0.025  -0.235  -2.287
Ti  -0.342  -1.518  -0.739
O  -1.899  -1.360  0.173
O  -1.390  2.018  -0.613
O  1.866  1.202  -0.534
   12
step   70
Ti  -1.897  0.571  0.777
Ti  1.797  -0.343  0.656
O  -0.041  0.106  0.508
O  -2.025  0.839  2.405
O  2.989  -0.527  1.808
O  1.196  -2.032  -0.103
Ti  0.218  1.289  -1.134
O  -0.016  -0.236  -2.300
Ti  -0.344  -1.520  -0.745
O  -1.896  -1.354  0.171
O  -1.402  2.009  -0.624
O  1.871  1.204  -0.532
   12
step   71
Ti  -1.906  0.573  0.786
Ti  1.799  -0.343  0.662
O  -0.046  0.106  0.513
O  -2.003  0.834  2.401
O  3.001  -0.529  1.815
O  1.187  -2.029  -0.104
Ti  0.219  1.291  -1.139
O  -0.008  -0.236  -2.312
Ti  -0.346  -1.522  -0.750
O  -1.892  -1.347  0.170
O  -1.414  1.999  -0.635
O  1.877  1.205  -0.530
   12
step   72
Ti  -1.914  0.575  0.795
Ti  1.800  -0.344  0.668
O  -0.052  0.106  0.518
O  -1.982  0.829  2.398
O  3.012  -0.531  1.822
O  1.179  -2.027  -0.105
Ti  0.220  1.293  -1.143
O  0.000  -0.236  -2.322
Ti  -0.349  -1.522  -0.756
O  -1.888  -1.339  0.168
O  -1.427  1.988  -0.646
O  1.883  1.206  -0.528
   12
step   73
Ti  -1.922  0.576  0.803
Ti  1.803  -0.345  0.674
O  -0.058  0.107  0.521
O  -1.961  0.825  2.394
O  3.021  -0.533  1.828
O  1.171  -2.025  -0.106
Ti  0.221  1.295  -1.147
O  0.008  -0.236  -2.330
Ti  -0.353  -1.523  -0.762
O  -1.883  -1.332  0.165
O  -1.440  1.976  -0.656
O  1.890  1.207  -0.526
   12
step   74
Ti  -1.928  0.578  0.812
Ti  1.805  -0.346  0.680
O  -0.064  0.108  0.525
O  -1.942  0.820  2.391
O  3.028  -0.535  1.833
O  1.163  -2.023  -0.107
Ti  0.222  1.296  -1.152
O  0.015  -0.236  -2.336
Ti  -0.356  -1.522  -0.768
O  -1.877  -1.324  0.163
O  -1.453  1.963  -0.665
O  1.896  1.208  -0.524
   12
step   75
Ti  -1.933  0.580  0.820
Ti  1.808  -0.347  0.686
O  -0.070  0.109  0.528
O  -1.924  0.816  2.389
O  3.033  -0.537  1.836
O  1.156  -2.020  -0.108
Ti  0.223  1.297  -1.156
O  0.022  -0.235  -2.340
Ti  -0.360  -1.522  -0.774
O  -1.870  -1.317  0.161
O  -1.465  1.950  -0.674
O  1.903  1.208  -0.522
   12
step   76
Ti  -1.937  0.582  0.828
Ti  1.811  -0.348  0.691
O  -0.075  0.111  0.530
O  -1.907  0.813  2.388
O  3.033  -0.538  1.838
O  1.150  -2.018  -0.108
Ti  0.223  1.297  -1.161
O  0.028  -0.235  -2.342
Ti  -0.364  -1.520  -0.781
O  -1.862  -1.310  0.159
O  -1.476  1.936  -0.682
O  1.909  1.209  -0.520
   12
step   77
Ti  -1.940  0.583  0.835
Ti  1.815  -0.349  0.697
O  -0.080  0.114  0.532
O  -1.893  0.810  2.388
O  3.031  -0.539  1.839
O  1.144  -2.016  -0.108
Ti  0.223  1.297  -1.166
O  0.033  -0.234  -2.341
Ti  -0.369  -1.519  -0.787
O  -1.854  -1.303  0.157
O  -1.485  1.921  -0.689
O  1.915  1.208  -0.518
   12
step   78
Ti  -1.941  0.585  0.841
Ti  1.818  -0.351  0.702
O  -0.085  0.117  0.533
O  -1.880  0.807  2.389
O  3.025  -0.540  1.838
O  1.138  -2.013  -0.108
Ti  0.223  1.297  -1.170
O  0.038  -0.232  -2.339
Ti  -0.373  -1.516  -0.794
O  -1.846  -1.297  0.156
O  -1.493  1.906  -0.696
O  1.920  1.208  -0.516
   12
step   79
Ti  -1.941  0.586  0.847
Ti  1.822  -0.352  0.708
O  -0.089  0.120  0.533
O  -1.869  0.805  2.392
O  3.017  -0.540  1.837
O  1.134  -2.010  -0.107
Ti  0.222  1.296  -1.175
O  0.043  -0.231  -2.334
Ti  -0.378  -1.513  -0.801
O  -1.839  -1.291  0.154
O  -1.500  1.890  -0.701
O  1.924  1.207  -0.514
   12
step   80
Ti  -1.941  0.587  0.851
Ti  1.826  -0.353  0.712
O  -0.092  0.124  0.533
O  -1.861  0.804  2.396
O  3.007  -0.539  1.834
O  1.129  -2.008  -0.106
Ti  0.222  1.295  -1.179
O  0.046  -0.229  -2.327
Ti  -0.382  -1.510  -0.808
O  -1.832  -1.286  0.152
O  -1.504  1.873  -0.706
O  1.928  1.206  -0.512
   12
step   81
Ti  -1.939  0.587  0.855
Ti  1.830  -0.354  0.717
O  -0.095  0.129  0.533
O  -1.855  0.803  2.402
O  2.996  -0.539  1.832
O  1.126  -2.005  -0.106
Ti  0.221  1.293  -1.183
O  0.049  -0.227  -2.319
Ti  -0.386  -1.506  -0.815
O  -1.826  -1.281  0.151
O  -1.506  1.856  -0.709
O  1.931  1.204  -0.509
   12
step   82
Ti  -1.936  0.588  0.858
Ti  1.833  -0.355  0.721
O  -0.096  0.134  0.531
O  -1.851  0.803  2.409
O  2.984  -0.537  1.829
O  1.123  -2.002  -0.105
Ti  0.219  1.291  -1.187
O  0.052  -0.225  -2.308
Ti  -0.390  -1.502  -0.822
O  -1.821  -1.277  0.149
O  -1.506  1.838  -0.712
O  1.933  1.202  -0.507
   12
step   83
Ti  -1.932  0.588  0.861
Ti  1.836  -0.356  0.724
O  -0.097  0.139  0.530
O  -1.850  0.803  2.417
O  2.973  -0.535  1.827
O  1.120  -1.999  -0.103
Ti  0.218  1.289  -1.191
O  0.054  -0.222  -2.297
Ti  -0.394  -1.497  -0.829
O  -1.819  -1.274  0.147
O  -1.505  1.820  -0.715
O  1.935  1.200  -0.505
   12
step   84
Ti  -1.927  0.587  0.863
Ti  1.839  -0.357  0.727
O  -0.097  0.145  0.527
O  -1.851  0.804  2.427
O  2.964  -0.534  1.826
O  1.118  -1.996  -0.102
Ti  0.216  1.287  -1.195
O  0.055  -0.220  -2.284
Ti  -0.397  -1.492  -0.836
O  -1.818  -1.271  0.145
O  -1.501  1.801  -0.716
O  1.935  1.197  -0.503
   12
step   85
Ti  -1.922  0.586  0.864
Ti  1.841  -0.357  0.729
O  -0.096  0.151  0.525
O  -1.854  0.805  2.437
O  2.957  -0.531  1.826
O  1.116  -1.993  -0.101
Ti  0.214  1.284  -1.198
O  0.056  -0.217  -2.270
Ti  -0.400  -1.487  -0.843
O  -1.820  -1.268  0.143
O  -1.497  1.783  -0.717
O  1.935  1.195  -0.501
   12
step   86
Ti  -1.916  0.585  0.864
Ti  1.842  -0.357  0.730
O  -0.094  0.157  0.521
O  -1.859  0.807  2.448
O  2.954  -0.529  1.827
O  1.115  -1.991  -0.100
Ti  0.212  1.281  -1.201
O  0.056  -0.215  -2.255
Ti  -0.403  -1.481  -0.850
O  -1.825  -1.267  0.141
O  -1.491  1.764  -0.717
O  1.934  1.192  -0.499
   12
step   87
Ti  -1.910  0.583  0.864
Ti  1.843  -0.357  0.730
O  -0.091  0.163  0.518
O  -1.867  0.809  2.459
O  2.953  -0.527  1.830
O  1.113  -1.988  -0.099
Ti  0.210  1.278  -1.203
O  0.056  -0.213  -2.240
Ti  -0.405  -1.476  -0.856
O  -1.831  -1.265  0.139
O  -1.484  1.745  -0.717
O  1.933  1.190  -0.497
   12
step   88
Ti  -1.903  0.582  0.864
Ti  1.843  -0.356  0.729
O  -0.087  0.170  0.514
O  -1.877  0.812  2.469
O  2.955  -0.526  1.835
O  1.112  -1.985  -0.098
Ti  0.208  1.274  -1.206
O  0.055  -0.211  -2.224
Ti  -0.407  -1.469  -0.863
O  -1.840  -1.265  0.137
O  -1.476  1.727  -0.716
O  1.930  1.187  -0.495
   12
step   89
Ti  -1.896  0.579  0.864
Ti  1.843  -0.356  0.727
O  -0.082  0.177  0.510
O  -1.889  0.815  2.479
O  2.961  -0.524  1.841
O  1.111  -1.981  -0.097
Ti  0.206  1.271  -1.207
O  0.053  -0.209  -2.209
Ti  -0.408  -1.463  -0.869
O  -1.850  -1.264  0.134
O  -1.468  1.709  -0.715
O  1.927  1.184  -0.493
   12
step   90
Ti  -1.888  0.577  0.864
Ti  1.842  -0.355  0.725
O  -0.076  0.183  0.505
O  -1.902  0.819  2.489
O  2.969  -0.523  1.847
O  1.110  -1.978  -0.097
Ti  0.204  1.267  -1.209
O  0.051  -0.208  -2.193
Ti  -0.410  -1.457  -0.875
O  -1.862  -1.264  0.131
O  -1.459  1.691  -0.713
O  1.924  1.181  -0.492
   12
step   91
Ti  -1.880  0.574  0.864
Ti  1.841  -0.353  0.722
O  -0.070  0.190  0.501
O  -1.918  0.822  2.497
O  2.978  -0.521  1.855
O  1.109  -1.975  -0.097
Ti  0.202  1.264  -1.209
O  0.049  -0.207  -2.178
Ti  -0.411  -1.450  -0.880
O  -1.874  -1.264  0.129
O  -1.450  1.674  -0.710
O  1.920  1.179  -0.490
   12
step   92
Ti  -1.871  0.571  0.865
Ti  1.839  -0.352  0.718
O  -0.062  0.196  0.497
O  -1.936  0.826  2.505
O  2.988  -0.520  1.862
O  1.107  -1.972  -0.098
Ti  0.200  1.261  -1.210
O  0.045  -0.207  -2.164
Ti  -0.412  -1.443  -0.884
O  -1.887  -1.265  0.126
O  -1.440  1.658  -0.708
O  1.915  1.176  -0.490
   12
step   93
Ti  -1.862  0.568  0.866
Ti  1.838  -0.351  0.713
O  -0.054  0.202  0.492
O  -1.955  0.831  2.511
O  2.998  -0.518  1.869
O  1.105  -1.969  -0.098
Ti  0.198  1.258  -1.209
O  0.042  -0.207  -2.152
Ti  -0.413  -1.437  -0.888
O  -1.899  -1.266  0.123
O  -1.430  1.643  -0.704
O  1.911  1.173  -0.489
   12
step   94
Ti  -1.853  0.564  0.867
Ti  1.836  -0.350  0.708
O  -0.045  0.208  0.488
O  -1.975  0.835  2.516
O  3.006  -0.516  1.875
O  1.103  -1.966  -0.100
Ti  0.197  1.255  -1.209
O  0.037  -0.209  -2.140
Ti  -0.415  -1.430  -0.891
O  -1.911  -1.267  0.120
O  -1.420  1.629  -0.700
O  1.905  1.171  -0.489
   12
step   95
Ti  -1.843  0.560  0.869
Ti  1.835  -0.348  0.703
O  -0.036  0.213  0.484