   15
step    0
Ti  0.373  1.671  -0.825
Ti  -1.139  0.701  1.402
Ti  1.973  -0.002  1.297
O  -2.440  -0.527  1.184
O  1.900  -1.342  -0.128
O  0.306  0.213  2.300
O  -0.944  2.259  0.382
O  1.796  1.604  0.152
O  -0.446  -0.039  -0.268
Ti  -2.091  -1.230  -0.586
Ti  0.715  -1.106  -1.421
O  0.803  0.556  -2.277
O  3.321  -0.034  2.203
O  -0.693  -2.230  -1.476
O  -3.094  -0.561  -1.674
   15
step    1
Ti  0.373  1.670  -0.826
Ti  -1.140  0.700  1.401
Ti  1.975  -0.004  1.298
O  -2.436  -0.528  1.185
O  1.901  -1.344  -0.125
O  0.306  0.211  2.302
O  -0.947  2.257  0.380
O  1.793  1.606  0.150
O  -0.447  -0.034  -0.269
Ti  -2.092  -1.227  -0.586
Ti  0.715  -1.107  -1.419
O  0.802  0.557  -2.280
O  3.320  -0.035  2.204
O  -0.694  -2.226  -1.475
O  -3.091  -0.559  -1.672
   15
step    2
Ti  0.373  1.669  -0.827
Ti  -1.141  0.700  1.400
Ti  1.978  -0.006  1.298
O  -2.432  -0.530  1.186
O  1.902  -1.345  -0.122
O  0.306  0.210  2.304
O  -0.950  2.254  0.379
O  1.790  1.608  0.147
O  -0.448  -0.030  -0.270
Ti  -2.093  -1.225  -0.587
Ti  0.715  -1.108  -1.418
O  0.801  0.557  -2.283
O  3.318  -0.035  2.206
O  -0.696  -2.223  -1.475
O  -3.087  -0.558  -1.671
   15
step    3
Ti  0.373  1.669  -0.828
Ti  -1.141  0.699  1.399
Ti  1.980  -0.007  1.298
O  -2.428  -0.531  1.188
O  1.903  -1.347  -0.120
O  0.306  0.209  2.305
O  -0.954  2.252  0.377
O  1.788  1.610  0.145
O  -0.448  -0.026  -0.272
Ti  -2.094  -1.223  -0.587
Ti  0.715  -1.108  -1.416
O  0.800  0.557  -2.285
O  3.317  -0.035  2.207
O  -0.697  -2.219  -1.474
O  -3.084  -0.556  -1.670
   15
step    4
Ti  0.373  1.668  -0.829
Ti  -1.142  0.699  1.398
Ti  1.982  -0.009  1.299
O  -2.425  -0.533  1.189
O  1.904  -1.349  -0.117
O  0.306  0.208  2.307
O  -0.957  2.250  0.376
O  1.786  1.612  0.142
O  -0.449  -0.022  -0.273
Ti  -2.095  -1.222  -0.587
Ti  0.715  -1.109  -1.415
O  0.799  0.558  -2.288
O  3.315  -0.036  2.208
O  -0.699  -2.216  -1.474
O  -3.080  -0.554  -1.669
   15
step    5
Ti  0.373  1.668  -0.830
Ti  -1.142  0.698  1.397
Ti  1.984  -0.011  1.299
O  -2.421  -0.535  1.191
O  1.905  -1.350  -0.114
O  0.306  0.206  2.308
O  -0.960  2.248  0.374
O  1.784  1.614  0.140
O  -0.450  -0.018  -0.274
Ti  -2.096  -1.220  -0.586
Ti  0.715  -1.110  -1.414
O  0.798  0.558  -2.291
O  3.314  -0.036  2.210
O  -0.700  -2.213  -1.474
O  -3.077  -0.552  -1.669
   15
step    6
Ti  0.372  1.667  -0.831
Ti  -1.143  0.698  1.396
Ti  1.985  -0.012  1.299
O  -2.418  -0.537  1.192
O  1.906  -1.352  -0.111
O  0.307  0.205  2.310
O  -0.963  2.246  0.373
O  1.782  1.616  0.137
O  -0.451  -0.014  -0.275
Ti  -2.097  -1.218  -0.586
Ti  0.716  -1.110  -1.412
O  0.796  0.558  -2.293
O  3.313  -0.036  2.212
O  -0.702  -2.210  -1.473
O  -3.073  -0.549  -1.669
   15
step    7
Ti  0.372  1.667  -0.832
Ti  -1.143  0.697  1.396
Ti  1.987  -0.014  1.299
O  -2.414  -0.539  1.194
O  1.906  -1.354  -0.108
O  0.307  0.204  2.311
O  -0.966  2.245  0.372
O  1.781  1.617  0.135
O  -0.451  -0.011  -0.277
Ti  -2.098  -1.217  -0.586
Ti  0.716  -1.111  -1.411
O  0.795  0.558  -2.296
O  3.312  -0.036  2.213
O  -0.704  -2.208  -1.473
O  -3.071  -0.547  -1.669
   15
step    8
Ti  0.371  1.667  -0.834
Ti  -1.143  0.697  1.395
Ti  1.988  -0.015  1.299
O  -2.411  -0.542  1.196
O  1.907  -1.355  -0.106
O  0.307  0.203  2.312
O  -0.969  2.243  0.370
O  1.779  1.619  0.133
O  -0.452  -0.007  -0.278
Ti  -2.098  -1.216  -0.585
Ti  0.716  -1.111  -1.410
O  0.794  0.557  -2.298
O  3.312  -0.037  2.216
O  -0.706  -2.205  -1.473
O  -3.068  -0.544  -1.670
   15
step    9
Ti  0.371  1.667  -0.835
Ti  -1.143  0.697  1.395
Ti  1.990  -0.016  1.299
O  -2.408  -0.544  1.198
O  1.908  -1.357  -0.103
O  0.308  0.202  2.313
O  -0.972  2.242  0.369
O  1.779  1.621  0.131
O  -0.452  -0.004  -0.279
Ti  -2.098  -1.215  -0.584
Ti  0.717  -1.111  -1.409
O  0.792  0.557  -2.301
O  3.312  -0.037  2.218
O  -0.707  -2.203  -1.473
O  -3.066  -0.541  -1.671
   15
step   10
Ti  0.370  1.667  -0.837
Ti  -1.143  0.696  1.395
Ti  1.991  -0.017  1.299
O  -2.406  -0.547  1.200
O  1.909  -1.359  -0.101
O  0.308  0.201  2.314
O  -0.975  2.241  0.368
O  1.778  1.622  0.129
O  -0.453  -0.001  -0.280
Ti  -2.098  -1.214  -0.583
Ti  0.717  -1.111  -1.408
O  0.791  0.556  -2.303
O  3.312  -0.037  2.221
O  -0.709  -2.202  -1.473
O  -3.065  -0.538  -1.673
   15
step   11
Ti  0.369  1.667  -0.838
Ti  -1.143  0.696  1.395
Ti  1.991  -0.018  1.298
O  -2.403  -0.550  1.202
O  1.909  -1.361  -0.098
O  0.309  0.200  2.314
O  -0.979  2.240  0.367
O  1.778  1.623  0.127
O  -0.453  0.001  -0.282
Ti  -2.098  -1.213  -0.582
Ti  0.717  -1.111  -1.406
O  0.789  0.555  -2.305
O  3.313  -0.037  2.223
O  -0.711  -2.200  -1.473
O  -3.064  -0.534  -1.675
   15
step   12
Ti  0.368  1.667  -0.840
Ti  -1.143  0.696  1.395
Ti  1.992  -0.019  1.298
O  -2.401  -0.554  1.204
O  1.909  -1.363  -0.096
O  0.310  0.199  2.315
O  -0.982  2.239  0.366
O  1.779  1.625  0.125
O  -0.453  0.003  -0.283
Ti  -2.098  -1.212  -0.581
Ti  0.718  -1.111  -1.405
O  0.788  0.554  -2.307
O  3.313  -0.037  2.226
O  -0.712  -2.199  -1.473
O  -3.063  -0.531  -1.677
   15
step   13
Ti  0.366  1.668  -0.842
Ti  -1.142  0.696  1.395
Ti  1.993  -0.020  1.298
O  -2.400  -0.557  1.206
O  1.910  -1.365  -0.094
O  0.310  0.198  2.315
O  -0.986  2.238  0.365
O  1.779  1.626  0.123
O  -0.452  0.005  -0.284
Ti  -2.097  -1.211  -0.580
Ti  0.718  -1.111  -1.404
O  0.786  0.553  -2.308
O  3.314  -0.037  2.230
O  -0.714  -2.198  -1.473
O  -3.062  -0.528  -1.679
   15
step   14
Ti  0.365  1.668  -0.844
Ti  -1.142  0.696  1.396
Ti  1.993  -0.020  1.297
O  -2.398  -0.561  1.208
O  1.910  -1.367  -0.093
O  0.311  0.197  2.315
O  -0.989  2.238  0.364
O  1.780  1.626  0.122
O  -0.452  0.006  -0.284
Ti  -2.097  -1.211  -0.579
Ti  0.719  -1.110  -1.404
O  0.785  0.551  -2.310
O  3.315  -0.037  2.233
O  -0.715  -2.197  -1.474
O  -3.062  -0.524  -1.682
   15
step   15
Ti  0.364  1.669  -0.846
Ti  -1.141  0.696  1.396
Ti  1.993  -0.021  1.297
O  -2.397  -0.564  1.211
O  1.910  -1.369  -0.091
O  0.312  0.196  2.315
O  -0.992  2.238  0.363
O  1.781  1.627  0.120
O  -0.452  0.007  -0.285
Ti  -2.096  -1.210  -0.578
Ti  0.720  -1.110  -1.403
O  0.783  0.550  -2.312
O  3.316  -0.037  2.237
O  -0.716  -2.196  -1.474
O  -3.062  -0.521  -1.684
   15
step   16
Ti  0.362  1.669  -0.848
Ti  -1.141  0.695  1.397
Ti  1.993  -0.021  1.297
O  -2.396  -0.568  1.213
O  1.909  -1.371  -0.090
O  0.312  0.196  2.314
O  -0.996  2.238  0.363
O  1.783  1.627  0.119
O  -0.451  0.008  -0.286
Ti  -2.096  -1.210  -0.577
Ti  0.720  -1.109  -1.402
O  0.781  0.548  -2.313
O  3.317  -0.037  2.240
O  -0.717  -2.195  -1.475
O  -3.062  -0.517  -1.687
   15
step   17
Ti  0.360  1.670  -0.850
Ti  -1.140  0.695  1.397
Ti  1.993  -0.021  1.296
O  -2.395  -0.572  1.216
O  1.909  -1.374  -0.089
O  0.313  0.195  2.314
O  -0.999  2.238  0.362
O  1.784  1.627  0.118
O  -0.450  0.007  -0.286
Ti  -2.095  -1.210  -0.576
Ti  0.721  -1.109  -1.401
O  0.780  0.546  -2.314
O  3.317  -0.037  2.244
O  -0.718  -2.195  -1.475
O  -3.062  -0.514  -1.689
   15
step   18
Ti  0.358  1.671  -0.852
Ti  -1.139  0.695  1.398
Ti  1.993  -0.021  1.296
O  -2.395  -0.575  1.218
O  1.908  -1.376  -0.088
O  0.314  0.195  2.313
O  -1.003  2.238  0.361
O  1.786  1.627  0.116
O  -0.449  0.007  -0.286
Ti  -2.094  -1.210  -0.575
Ti  0.722  -1.108  -1.401
O  0.778  0.545  -2.315
O  3.318  -0.037  2.247
O  -0.718  -2.195  -1.476
O  -3.062  -0.511  -1.692
   15
step   19
Ti  0.357  1.672  -0.854
Ti  -1.138  0.695  1.399
Ti  1.993  -0.021  1.296
O  -2.395  -0.579  1.221
O  1.907  -1.379  -0.087
O  0.315  0.195  2.312
O  -1.006  2.238  0.361
O  1.788  1.627  0.115
O  -0.448  0.006  -0.286
Ti  -2.093  -1.209  -0.574
Ti  0.722  -1.107  -1.400
O  0.776  0.543  -2.316
O  3.318  -0.038  2.251
O  -0.718  -2.194  -1.476
O  -3.061  -0.508  -1.694
   15
step   20
Ti  0.355  1.673  -0.856
Ti  -1.137  0.695  1.400
Ti  1.993  -0.021  1.296
O  -2.394  -0.583  1.224
O  1.906  -1.382  -0.087
O  0.316  0.195  2.310
O  -1.009  2.239  0.361
O  1.790  1.626  0.113
O  -0.447  0.004  -0.286
Ti  -2.092  -1.209  -0.574
Ti  0.723  -1.106  -1.400
O  0.775  0.541  -2.316
O  3.318  -0.038  2.254
O  -0.718  -2.194  -1.477
O  -3.061  -0.505  -1.696
   15
step   21
Ti  0.353  1.675  -0.858
Ti  -1.136  0.695  1.401
Ti  1.993  -0.020  1.296
O  -2.394  -0.586  1.226
O  1.905  -1.384  -0.087
O  0.317  0.195  2.309
O  -1.012  2.240  0.360
O  1.791  1.626  0.112
O  -0.446  0.002  -0.285
Ti  -2.092  -1.209  -0.573
Ti  0.724  -1.106  -1.399
O  0.773  0.539  -2.316
O  3.318  -0.039  2.257
O  -0.718  -2.194  -1.478
O  -3.060  -0.502  -1.697
   15
step   22
Ti  0.351  1.676  -0.860
Ti  -1.135  0.695  1.403
Ti  1.993  -0.020  1.296
O  -2.394  -0.589  1.229
O  1.903  -1.386  -0.087
O  0.318  0.195  2.307
O  -1.015  2.241  0.360
O  1.793  1.624  0.110
O  -0.445  0.000  -0.284
Ti  -2.091  -1.209  -0.573
Ti  0.725  -1.105  -1.399
O  0.772  0.537  -2.317
O  3.317  -0.039  2.259
O  -0.718  -2.195  -1.478
O  -3.059  -0.500  -1.699
   15
step   23
Ti  0.349  1.677  -0.862
Ti  -1.134  0.695  1.404
Ti  1.992  -0.019  1.296
O  -2.394  -0.592  1.231
O  1.902  -1.389  -0.087
O  0.318  0.195  2.305
O  -1.017  2.241  0.360
O  1.794  1.623  0.108
O  -0.444  -0.002  -0.283
Ti  -2.090  -1.208  -0.573
Ti  0.725  -1.104  -1.399
O  0.770  0.535  -2.316
O  3.316  -0.040  2.262
O  -0.717  -2.195  -1.479
O  -3.057  -0.497  -1.699
   15
step   24
Ti  0.347  1.678  -0.864
Ti  -1.133  0.694  1.405
Ti  1.992  -0.018  1.296
O  -2.394  -0.595  1.233
O  1.900  -1.391  -0.088
O  0.319  0.195  2.303
O  -1.019  2.242  0.360
O  1.795  1.621  0.107
O  -0.443  -0.005  -0.282
Ti  -2.090  -1.208  -0.573
Ti  0.726  -1.103  -1.398
O  0.769  0.533  -2.316
O  3.314  -0.041  2.264
O  -0.716  -2.195  -1.480
O  -3.055  -0.495  -1.700
   15
step   25
Ti  0.345  1.680  -0.866
Ti  -1.132  0.694  1.407
Ti  1.992  -0.017  1.297
O  -2.394  -0.598  1.236
O  1.899  -1.393  -0.088
O  0.320  0.196  2.301
O  -1.021  2.243  0.360
O  1.796  1.620  0.104
O  -0.442  -0.008  -0.281
Ti  -2.089  -1.208  -0.574
Ti  0.727  -1.102  -1.398
O  0.768  0.532  -2.315
O  3.312  -0.042  2.265
O  -0.715  -2.195  -1.480
O  -3.053  -0.493  -1.700
   15
step   26
Ti  0.344  1.681  -0.867
Ti  -1.131  0.694  1.408
Ti  1.992  -0.017  1.297
O  -2.394  -0.600  1.238
O  1.897  -1.395  -0.089
O  0.321  0.196  2.299
O  -1.023  2.244  0.360
O  1.797  1.618  0.102
O  -0.441  -0.010  -0.279
Ti  -2.089  -1.208  -0.575
Ti  0.728  -1.102  -1.398
O  0.767  0.530  -2.315
O  3.310  -0.043  2.267
O  -0.714  -2.196  -1.481
O  -3.050  -0.491  -1.700
   15
step   27
Ti  0.342  1.683  -0.869
Ti  -1.130  0.694  1.410
Ti  1.991  -0.016  1.298
O  -2.394  -0.602  1.240
O  1.896  -1.396  -0.090
O  0.322  0.197  2.296
O  -1.024  2.245  0.360
O  1.797  1.615  0.100
O  -0.440  -0.013  -0.277
Ti  -2.088  -1.207  -0.575
Ti  0.728  -1.101  -1.397
O  0.766  0.528  -2.314
O  3.307  -0.045  2.268
O  -0.712  -2.196  -1.482
O  -3.047  -0.489  -1.700
   15
step   28
Ti  0.340  1.684  -0.871
Ti  -1.130  0.693  1.411
Ti  1.991  -0.015  1.299
O  -2.393  -0.604  1.241
O  1.894  -1.397  -0.090
O  0.323  0.197  2.294
O  -1.025  2.246  0.360
O  1.797  1.613  0.097
O  -0.439  -0.016  -0.275
Ti  -2.088  -1.207  -0.576
Ti  0.729  -1.100  -1.397
O  0.765  0.527  -2.312
O  3.304  -0.046  2.269
O  -0.710  -2.197  -1.482
O  -3.044  -0.488  -1.699
   15
step   29
Ti  0.339  1.685  -0.872
Ti  -1.129  0.693  1.413
Ti  1.991  -0.014  1.300
O  -2.393  -0.606  1.243
O  1.893  -1.398  -0.091
O  0.324  0.198  2.291
O  -1.026  2.247  0.360
O  1.797  1.610  0.094
O  -0.438  -0.019  -0.273
Ti  -2.088  -1.207  -0.577
Ti  0.729  -1.100  -1.397
O  0.764  0.526  -2.311
O  3.301  -0.047  2.269
O  -0.709  -2.197  -1.483
O  -3.041  -0.486  -1.698
   15
step   30
Ti  0.337  1.686  -0.873
Ti  -1.128  0.693  1.414
Ti  1.991  -0.013  1.300
O  -2.392  -0.607  1.245
O  1.892  -1.399  -0.092
O  0.325  0.199  2.288
O  -1.026  2.248  0.360
O  1.796  1.608  0.091
O  -0.437  -0.021  -0.270
Ti  -2.088  -1.206  -0.579
Ti  0.730  -1.100  -1.397
O  0.763  0.525  -2.310
O  3.298  -0.049  2.270
O  -0.707  -2.198  -1.484
O  -3.037  -0.485  -1.697
   15
step   31
Ti  0.336  1.687  -0.874
Ti  -1.128  0.692  1.416
Ti  1.990  -0.012  1.301
O  -2.392  -0.608  1.246
O  1.891  -1.399  -0.092
O  0.326  0.200  2.285
O  -1.026  2.248  0.361
O  1.795  1.605  0.088
O  -0.436  -0.024  -0.268
Ti  -2.087  -1.206  -0.580
Ti  0.730  -1.099  -1.397
O  0.763  0.524  -2.308
O  3.294  -0.050  2.270
O  -0.705  -2.198  -1.484
O  -3.033  -0.483  -1.695
   15
step   32
Ti  0.334  1.689  -0.875
Ti  -1.128  0.692  1.417
Ti  1.990  -0.011  1.302
O  -2.391  -0.609  1.247
O  1.891  -1.399  -0.093
O  0.328  0.201  2.283
O  -1.025  2.249  0.361
O  1.794  1.603  0.085
O  -0.436  -0.026  -0.265
Ti  -2.087  -1.206  -0.581
Ti  0.730  -1.099  -1.397
O  0.762  0.524  -2.307
O  3.290  -0.052  2.271
O  -0.703  -2.199  -1.485
O  -3.029  -0.482  -1.694
   15
step   33
Ti  0.333  1.690  -0.876
Ti  -1.127  0.691  1.419
Ti  1.989  -0.010  1.302
O  -2.390  -0.609  1.249
O  1.890  -1.399  -0.094
O  0.329  0.202  2.280
O  -1.024  2.249  0.362
O  1.792  1.600  0.082
O  -0.435  -0.029  -0.263
Ti  -2.087  -1.206  -0.583
Ti  0.730  -1.099  -1.397
O  0.761  0.523  -2.305
O  3.287  -0.054  2.271
O  -0.701  -2.200  -1.486
O  -3.025  -0.480  -1.692
   15
step   34
Ti  0.332  1.690  -0.877
Ti  -1.127  0.691  1.420
Ti  1.989  -0.009  1.303
O  -2.389  -0.609  1.250
O  1.890  -1.399  -0.094
O  0.330  0.203  2.277
O  -1.023  2.249  0.362
O  1.790  1.598  0.079
O  -0.435  -0.031  -0.260
Ti  -2.086  -1.205  -0.584
Ti  0.730  -1.099  -1.397
O  0.761  0.523  -2.303
O  3.283  -0.055  2.271
O  -0.699  -2.200  -1.486
O  -3.021  -0.479  -1.691
   15
step   35
Ti  0.331  1.691  -0.878
Ti  -1.127  0.690  1.421
Ti  1.988  -0.008  1.303
O  -2.388  -0.609  1.250
O  1.890  -1.398  -0.094
O  0.332  0.204  2.274
O  -1.022  2.249  0.363
O  1.788  1.596  0.076
O  -0.434  -0.033  -0.257
Ti  -2.086  -1.205  -0.586
Ti  0.730  -1.100  -1.397
O  0.760  0.523  -2.302
O  3.280  -0.057  2.272
O  -0.697  -2.201  -1.486
O  -3.017  -0.477  -1.689
   15
step   36
Ti  0.329  1.692  -0.878
Ti  -1.127  0.690  1.423
Ti  1.987  -0.007  1.304
O  -2.387  -0.608  1.251
O  1.891  -1.397  -0.095
O  0.333  0.205  2.271
O  -1.020  2.249  0.363
O  1.786  1.593  0.073
O  -0.434  -0.035  -0.254
Ti  -2.085  -1.205  -0.587
Ti  0.730  -1.100  -1.397
O  0.760  0.523  -2.300
O  3.277  -0.058  2.272
O  -0.695  -2.202  -1.487
O  -3.014  -0.475  -1.688
   15
step   37
Ti  0.328  1.693  -0.879
Ti  -1.128  0.689  1.424
Ti  1.986  -0.007  1.304
O  -2.386  -0.607  1.252
O  1.891  -1.396  -0.095
O  0.335  0.207  2.268
O  -1.017  2.249  0.364
O  1.783  1.591  0.070
O  -0.434  -0.037  -0.252
Ti  -2.085  -1.206  -0.588
Ti  0.730  -1.101  -1.398
O  0.760  0.524  -2.299
O  3.274  -0.060  2.273
O  -0.694  -2.203  -1.487
O  -3.010  -0.473  -1.686
   15
step   38
Ti  0.327  1.693  -0.879
Ti  -1.128  0.689  1.425
Ti  1.985  -0.006  1.304
O  -2.384  -0.606  1.252
O  1.892  -1.395  -0.095
O  0.337  0.208  2.266
O  -1.015  2.249  0.365
O  1.780  1.590  0.067
O  -0.433  -0.039  -0.249
Ti  -2.084  -1.206  -0.589
Ti  0.730  -1.101  -1.398
O  0.759  0.524  -2.297
O  3.271  -0.062  2.274
O  -0.692  -2.204  -1.488
O  -3.006  -0.471  -1.685
   15
step   39
Ti  0.326  1.694  -0.879
Ti  -1.128  0.688  1.426
Ti  1.984  -0.005  1.303
O  -2.383  -0.605  1.253
O  1.894  -1.393  -0.095
O  0.338  0.209  2.264
O  -1.013  2.248  0.366
O  1.778  1.588  0.064
O  -0.433  -0.041  -0.247
Ti  -2.083  -1.206  -0.590
Ti  0.730  -1.102  -1.398
O  0.759  0.525  -2.296
O  3.268  -0.063  2.275
O  -0.690  -2.205  -1.488
O  -3.003  -0.469  -1.684
   15
step   40
Ti  0.325  1.694  -0.879
Ti  -1.129  0.688  1.427
Ti  1.983  -0.004  1.303
O  -2.381  -0.603  1.253
O  1.895  -1.391  -0.095
O  0.340  0.211  2.262
O  -1.010  2.248  0.367
O  1.775  1.586  0.061
O  -0.433  -0.043  -0.244
Ti  -2.082  -1.207  -0.590
Ti  0.729  -1.103  -1.398
O  0.758  0.526  -2.295
O  3.266  -0.065  2.276
O  -0.689  -2.207  -1.488
O  -3.000  -0.466  -1.683
   15
step   41
Ti  0.323  1.694  -0.880
Ti  -1.129  0.687  1.428
Ti  1.981  -0.003  1.302
O  -2.380  -0.601  1.253
O  1.897  -1.389  -0.095
O  0.341  0.212  2.260
O  -1.007  2.247  0.368
O  1.772  1.584  0.059
O  -0.433  -0.044  -0.242
Ti  -2.080  -1.208  -0.591
Ti  0.729  -1.104  -1.398
O  0.758  0.527  -2.293
O  3.264  -0.066  2.277
O  -0.687  -2.208  -1.488
O  -2.997  -0.464  -1.683
   15
step   42
Ti  0.322  1.694  -0.880
Ti  -1.130  0.687  1.429
Ti  1.980  -0.002  1.301
O  -2.379  -0.598  1.253
O  1.899  -1.386  -0.095
O  0.343  0.214  2.259
O  -1.004  2.246  0.370
O  1.769  1.583  0.056
O  -0.433  -0.046  -0.240
Ti  -2.079  -1.208  -0.591
Ti  0.728  -1.105  -1.399
O  0.757  0.529  -2.292
O  3.263  -0.067  2.278
O  -0.686  -2.210  -1.488
O  -2.995  -0.461  -1.683
   15
step   43
Ti  0.321  1.694  -0.880
Ti  -1.131  0.687  1.429
Ti  1.979  -0.001  1.299
O  -2.377  -0.596  1.253
O  1.901  -1.383  -0.094
O  0.344  0.215  2.258
O  -1.001  2.245  0.371
O  1.766  1.581  0.054
O  -0.434  -0.048  -0.238
Ti  -2.077  -1.209  -0.591
Ti  0.728  -1.106  -1.399
O  0.757  0.530  -2.291
O  3.262  -0.069  2.280
O  -0.685  -2.212  -1.489
O  -2.993  -0.458  -1.683
   15
step   44
Ti  0.320  1.694  -0.880
Ti  -1.131  0.686  1.430
Ti  1.977  0.000  1.298
O  -2.376  -0.593  1.252
O  1.904  -1.380  -0.095
O  0.346  0.217  2.258
O  -0.998  2.244  0.373
O  1.763  1.580  0.052
O  -0.434  -0.049  -0.237
Ti  -2.076  -1.210  -0.591
Ti  0.728  -1.107  -1.399
O  0.756  0.531  -2.290
O  3.261  -0.070  2.282
O  -0.684  -2.214  -1.489
O  -2.991  -0.454  -1.683
   15
step   45
Ti  0.318  1.694  -0.880
Ti  -1.132  0.686  1.431
Ti  1.976  0.001  1.296
O  -2.375  -0.590  1.252
O  1.906  -1.377  -0.095
O  0.347  0.218  2.258
O  -0.996  2.243  0.374
O  1.760  1.579  0.050
O  -0.434  -0.051  -0.235
Ti  -2.074  -1.212  -0.590
Ti  0.727  -1.109  -1.399
O  0.756  0.533  -2.290
O  3.260  -0.071  2.283
O  -0.683  -2.216  -1.489
O  -2.989  -0.451  -1.683
   15
step   46
Ti  0.317  1.693  -0.880
Ti  -1.133  0.686  1.431
Ti  1.974  0.002  1.295
O  -2.374  -0.587  1.251
O  1.909  -1.374  -0.095
O  0.348  0.219  2.259
O  -0.993  2.242  0.376
O  1.757  1.578  0.048
O  -0.434  -0.053  -0.234
Ti  -2.072  -1.213  -0.590
Ti  0.727  -1.110  -1.400
O  0.755  0.534  -2.289
O  3.260  -0.072  2.285
O  -0.683  -2.218  -1.489
O  -2.988  -0.447  -1.684
   15
step   47
Ti  0.316  1.693  -0.879
Ti  -1.133  0.686  1.432
Ti  1.973  0.004  1.293
O  -2.374  -0.584  1.251
O  1.912  -1.371  -0.095
O  0.349  0.221  2.260
O  -0.990  2.241  0.377
O  1.755  1.577  0.047
O  -0.434  -0.055  -0.234
Ti  -2.070  -1.214  -0.589
Ti  0.726  -1.111  -1.400
O  0.755  0.536  -2.288
O  3.259  -0.073  2.287
O  -0.683  -2.221  -1.488
O  -2.986  -0.444  -1.684
   15
step   48
Ti  0.314  1.693  -0.879
Ti  -1.134  0.687  1.432
Ti  1.972  0.005  1.291
O  -2.374  -0.580  1.250
O  1.915  -1.368  -0.096
O  0.350  0.222  2.261
O  -0.987  2.239  0.379
O  1.752  1.576  0.045
O  -0.434  -0.056  -0.233
Ti  -2.067  -1.216  -0.588
Ti  0.726  -1.112  -1.400
O  0.754  0.537  -2.288
O  3.259  -0.073  2.289
O  -0.682  -2.223  -1.488
O  -2.985  -0.440  -1.685
   15
step   49
Ti  0.313  1.692  -0.879
Ti  -1.135  0.687  1.432
Ti  1.970  0.006  1.288
O  -2.374  -0.577  1.249
O  1.918  -1.364  -0.097
O  0.351  0.223  2.262
O  -0.985  2.238  0.381
O  1.750  1.575  0.044
O  -0.434  -0.058  -0.233
Ti  -2.065  -1.217  -0.588
Ti  0.726  -1.114  -1.400
O  0.753  0.539  -2.288
O  3.258  -0.074  2.291
O  -0.682  -2.226  -1.488
O  -2.984  -0.436  -1.685
   15
step   50
Ti  0.311  1.691  -0.879
Ti  -1.135  0.687  1.433
Ti  1.969  0.007  1.286
O  -2.374  -0.575  1.249
O  1.921  -1.361  -0.098
O  0.351  0.224  2.264
O  -0.982  2.237  0.382
O  1.748  1.574  0.043
O  -0.434  -0.060  -0.233
Ti  -2.063  -1.218  -0.587
Ti  0.725  -1.115  -1.400
O  0.753  0.540  -2.288
O  3.258  -0.074  2.293
O  -0.683  -2.229  -1.488
O  -2.982  -0.432  -1.685
   15
step   51
Ti  0.310  1.691  -0.879
Ti  -1.136  0.688  1.433
Ti  1.968  0.008  1.284
O  -2.375  -0.572  1.248
O  1.924  -1.358  -0.100
O  0.352  0.224  2.267
O  -0.980  2.236  0.384
O  1.747  1.574  0.043
O  -0.435  -0.062  -0.233
Ti  -2.061  -1.220  -0.586
Ti  0.725  -1.116  -1.400
O  0.752  0.542  -2.288
O  3.257  -0.075  2.294
O  -0.683  -2.232  -1.487
O  -2.981  -0.429  -1.685
   15
step   52
Ti  0.308  1.690  -0.879
Ti  -1.136  0.689  1.433
Ti  1.967  0.009  1.282
O  -2.376  -0.570  1.247
O  1.927  -1.355  -0.101
O  0.352  0.225  2.269
O  -0.977  2.235  0.386
O  1.746  1.573  0.042
O  -0.435  -0.064  -0.234
Ti  -2.059  -1.221  -0.585
Ti  0.725  -1.117  -1.401
O  0.751  0.543  -2.288
O  3.256  -0.075  2.296
O  -0.683  -2.235  -1.487
O  -2.979  -0.425  -1.685
   15
step   53
Ti  0.307  1.689  -0.879
Ti  -1.137  0.690  1.433
Ti  1.967  0.010  1.280
O  -2.378  -0.568  1.246
O  1.930  -1.352  -0.103
O  0.352  0.226  2.272
O  -0.975  2.234  0.387
O  1.745  1.573  0.042
O  -0.435  -0.066  -0.235
Ti  -2.057  -1.222  -0.584
Ti  0.725  -1.118  -1.401
O  0.751  0.544  -2.288
O  3.255  -0.075  2.297
O  -0.684  -2.238  -1.486
O  -2.977  -0.421  -1.685
   15
step   54
Ti  0.305  1.688  -0.878
Ti  -1.137  0.691  1.434
Ti  1.966  0.011  1.278
O  -2.379  -0.566  1.245
O  1.933  -1.350  -0.105
O  0.351  0.226  2.275
O  -0.972  2.233  0.389
O  1.744  1.573  0.042
O  -0.435  -0.068  -0.236
Ti  -2.055  -1.223  -0.583
Ti  0.725  -1.119  -1.401
O  0.750  0.545  -2.288
O  3.253  -0.075  2.298
O  -0.685  -2.242  -1.485
O  -2.975  -0.418  -1.685
   15
step   55
Ti  0.304  1.687  -0.878
Ti  -1.137  0.692  1.434
Ti  1.966  0.012  1.276
O  -2.381  -0.565  1.244
O  1.935  -1.347  -0.108
O  0.351  0.227  2.278
O  -0.970  2.232  0.391
O  1.744  1.574  0.043
O  -0.435  -0.070  -0.237
Ti  -2.053  -1.224  -0.582
Ti  0.725  -1.120  -1.401
O  0.749  0.546  -2.289
O  3.251  -0.075  2.299
O  -0.686  -2.245  -1.484
O  -2.973  -0.415  -1.684
   15
step   56
Ti  0.303  1.686  -0.878
Ti  -1.137  0.693  1.434
Ti  1.965  0.013  1.274
O  -2.383  -0.564  1.243
O  1.937  -1.345  -0.111
O  0.350  0.227  2.281
O  -0.967  2.232  0.393
O  1.743  1.574  0.044
O  -0.434  -0.072  -0.239
Ti  -2.051  -1.224  -0.581
Ti  0.724  -1.121  -1.401
O  0.748  0.546  -2.289
O  3.249  -0.075  2.299
O  -0.687  -2.249  -1.483
O  -2.971  -0.412  -1.683
   15
step   57
Ti  0.301  1.685  -0.878
Ti  -1.137  0.694  1.434
Ti  1.965  0.013  1.273
O  -2.386  -0.563  1.242
O  1.939  -1.343  -0.113
O  0.349  0.228  2.284
O  -0.965  2.231  0.394
O  1.744  1.575  0.044
O  -0.434  -0.074  -0.241
Ti  -2.049  -1.225  -0.581
Ti  0.724  -1.122  -1.401
O  0.747  0.547  -2.290
O  3.246  -0.075  2.299
O  -0.688  -2.253  -1.482
O  -2.968  -0.409  -1.682
   15
step   58
Ti  0.300  1.684  -0.877
Ti  -1.137  0.695  1.435
Ti  1.965  0.014  1.271
O  -2.388  -0.563  1.241
O  1.941  -1.342  -0.116
O  0.348  0.228  2.287
O  -0.962  2.231  0.396
O  1.744  1.576  0.046
O  -0.434  -0.076  -0.243
Ti  -2.048  -1.225  -0.580
Ti  0.724  -1.123  -1.401
O  0.746  0.547  -2.290
O  3.244  -0.075  2.299
O  -0.689  -2.256  -1.481
O  -2.965  -0.407  -1.680
   15
step   59
Ti  0.298  1.683  -0.877
Ti  -1.137  0.697  1.435
Ti  1.965  0.015  1.270
O  -2.391  -0.563  1.239
O  1.943  -1.340  -0.120
O  0.347  0.228  2.290
O  -0.960  2.231  0.398
O  1.745  1.577  0.047
O  -0.434  -0.078  -0.245
Ti  -2.047  -1.226  -0.580
Ti  0.724  -1.123  -1.402
O  0.746  0.548  -2.290
O  3.241  -0.075  2.298
O  -0.690  -2.260  -1.479
O  -2.961  -0.405  -1.678
   15
step   60
Ti  0.297  1.682  -0.877
Ti  -1.137  0.698  1.435
Ti  1.966  0.016  1.268
O  -2.393  -0.563  1.238
O  1.944  -1.339  -0.123
O  0.345  0.229  2.293
O  -0.958  2.232  0.399
O  1.745  1.578  0.049
O  -0.434  -0.080  -0.247
Ti  -2.046  -1.226  -0.579
Ti  0.725  -1.124  -1.402
O  0.745  0.548  -2.291
O  3.238  -0.075  2.297
O  -0.691  -2.263  -1.477
O  -2.957  -0.403  -1.676
   15
step   61
Ti  0.296  1.680  -0.877
Ti  -1.137  0.699  1.436
Ti  1.966  0.017  1.267
O  -2.396  -0.563  1.236
O  1.945  -1.338  -0.126
O  0.344  0.229  2.296
O  -0.955  2.232  0.401
O  1.746  1.579  0.051
O  -0.433  -0.082  -0.250
Ti  -2.045  -1.226  -0.579
Ti  0.725  -1.124  -1.402
O  0.744  0.548  -2.292
O  3.234  -0.075  2.296
O  -0.692  -2.266  -1.476
O  -2.953  -0.401  -1.673
   15
step   62
Ti  0.295  1.679  -0.876
Ti  -1.136  0.700  1.436
Ti  1.966  0.018  1.266
O  -2.399  -0.563  1.234
O  1.947  -1.337  -0.130
O  0.342  0.229  2.299
O  -0.953  2.233  0.403
O  1.747  1.581  0.052
O  -0.433  -0.084  -0.252
Ti  -2.044  -1.226  -0.579
Ti  0.725  -1.125  -1.403
O  0.743  0.548  -2.292
O  3.231  -0.075  2.295
O  -0.692  -2.269  -1.474
O  -2.949  -0.400  -1.671
   15
step   63
Ti  0.293  1.678  -0.876
Ti  -1.136  0.701  1.436
Ti  1.967  0.019  1.265
O  -2.401  -0.563  1.233
O  1.947  -1.337  -0.134
O  0.340  0.229  2.302
O  -0.951  2.234  0.404
O  1.748  1.583  0.054
O  -0.433  -0.086  -0.254
Ti  -2.043  -1.226  -0.578
Ti  0.725  -1.125  -1.403
O  0.742  0.548  -2.293
O  3.228  -0.075  2.294
O  -0.693  -2.272  -1.472
O  -2.945  -0.399  -1.668
   15
step   64
Ti  0.293  1.676  -0.875
Ti  -1.136  0.702  1.437
Ti  1.967  0.019  1.264
O  -2.404  -0.564  1.231
O  1.948  -1.336  -0.137
O  0.338  0.229  2.305
O  -0.949  2.235  0.405
O  1.750  1.585  0.057
O  -0.433  -0.087  -0.256
Ti  -2.043  -1.226  -0.578
Ti  0.725  -1.126  -1.404
O  0.741  0.548  -2.293
O  3.224  -0.075  2.292
O  -0.693  -2.275  -1.469
O  -2.940  -0.397  -1.665
   15
step   65
Ti  0.292  1.675  -0.875
Ti  -1.136  0.703  1.437
Ti  1.967  0.020  1.263
O  -2.406  -0.564  1.228
O  1.949  -1.336  -0.141
O  0.336  0.229  2.308
O  -0.947  2.236  0.406
O  1.751  1.587  0.059
O  -0.432  -0.088  -0.258
Ti  -2.042  -1.226  -0.578
Ti  0.724  -1.126  -1.404
O  0.739  0.547  -2.294
O  3.221  -0.075  2.290
O  -0.694  -2.277  -1.467
O  -2.935  -0.396  -1.661
   15
step   66
Ti  0.291  1.673  -0.874
Ti  -1.135  0.704  1.438
Ti  1.968  0.021  1.263
O  -2.409  -0.564  1.226
O  1.949  -1.336  -0.144
O  0.334  0.229  2.311
O  -0.946  2.238  0.407
O  1.752  1.590  0.061
O  -0.432  -0.089  -0.260
Ti  -2.042  -1.226  -0.578
Ti  0.724  -1.127  -1.405
O  0.738  0.547  -2.294
O  3.218  -0.075  2.288
O  -0.693  -2.279  -1.465
O  -2.931  -0.395  -1.658
   15
step   67
Ti  0.290  1.672  -0.874
Ti  -1.135  0.704  1.438
Ti  1.968  0.022  1.262
O  -2.411  -0.564  1.224
O  1.950  -1.336  -0.148
O  0.332  0.229  2.314
O  -0.944  2.239  0.408
O  1.753  1.592  0.063
O  -0.432  -0.090  -0.262
Ti  -2.042  -1.226  -0.578
Ti  0.724  -1.127  -1.406
O  0.737  0.546  -2.295
O  3.215  -0.075  2.286
O  -0.693  -2.281  -1.462
O  -2.926  -0.394  -1.655
   15
step   68
Ti  0.290  1.670  -0.873
Ti  -1.134  0.704  1.438
Ti  1.968  0.022  1.261
O  -2.413  -0.564  1.222
O  1.950  -1.336  -0.152
O  0.330  0.230  2.316
O  -0.943  2.241  0.409
O  1.754  1.595  0.065
O  -0.431  -0.090  -0.263
Ti  -2.042  -1.225  -0.577
Ti  0.724  -1.128  -1.407
O  0.736  0.545  -2.296
O  3.212  -0.075  2.285
O  -0.692  -2.282  -1.460
O  -2.921  -0.393  -1.652
   15
step   69
Ti  0.289  1.668  -0.873
Ti  -1.134  0.705  1.439
Ti  1.968  0.023  1.260
O  -2.415  -0.564  1.220
O  1.951  -1.336  -0.155
O  0.328  0.230  2.319
O  -0.942  2.243  0.409
O  1.756  1.597  0.067
O  -0.431  -0.090  -0.263
Ti  -2.042  -1.225  -0.577
Ti  0.724  -1.128  -1.408
O  0.735  0.545  -2.296
O  3.209  -0.075  2.283
O  -0.691  -2.283  -1.458
O  -2.917  -0.392  -1.650
   15
step   70
Ti  0.289  1.666  -0.872
Ti  -1.134  0.705  1.439
Ti  1.968  0.023  1.259
O  -2.417  -0.564  1.218
O  1.951  -1.337  -0.159
O  0.326  0.230  2.322
O  -0.941  2.245  0.410
O  1.757  1.600  0.069
O  -0.430  -0.090  -0.263
Ti  -2.042  -1.226  -0.576
Ti  0.723  -1.128  -1.410
O  0.734  0.544  -2.297
O  3.207  -0.075  2.281
O  -0.690  -2.284  -1.455
O  -2.913  -0.390  -1.647
   15
step   71
Ti  0.289  1.665  -0.872
Ti  -1.133  0.705  1.440
Ti  1.967  0.024  1.258
O  -2.419  -0.564  1.216
O  1.952  -1.337  -0.162
O  0.324  0.230  2.324
O  -0.940  2.247  0.410
O  1.758  1.604  0.071
O  -0.430  -0.089  -0.263
Ti  -2.042  -1.226  -0.576
Ti  0.723  -1.129  -1.411
O  0.732  0.543  -2.298
O  3.205  -0.075  2.280
O  -0.689  -2.284  -1.453
O  -2.909  -0.389  -1.645
   15
step   72
Ti  0.289  1.663  -0.871
Ti  -1.133  0.705  1.440
Ti  1.967  0.025  1.257
O  -2.420  -0.563  1.214
O  1.952  -1.337  -0.165
O  0.322  0.230  2.326
O  -0.940  2.248  0.410
O  1.759  1.607  0.073
O  -0.430  -0.088  -0.262
Ti  -2.042  -1.226  -0.575
Ti  0.722  -1.130  -1.413
O  0.731  0.542  -2.298
O  3.203  -0.075  2.279
O  -0.687  -2.284  -1.451
O  -2.905  -0.387  -1.643
   15
step   73
Ti  0.290  1.661  -0.871
Ti  -1.132  0.704  1.441
Ti  1.966  0.025  1.256
O  -2.421  -0.563  1.212
O  1.953  -1.338  -0.168
O  0.320  0.230  2.329
O  -0.940  2.250  0.410
O  1.759  1.610  0.074
O  -0.429  -0.087  -0.261
Ti  -2.042  -1.227  -0.574
Ti  0.722  -1.130  -1.414
O  0.730  0.541  -2.299
O  3.202  -0.075  2.278
O  -0.685  -2.284  -1.448
O  -2.902  -0.385  -1.642
   15
step   74
Ti  0.290  1.659  -0.870
Ti  -1.132  0.704  1.441
Ti  1.966  0.026  1.255
O  -2.422  -0.562  1.211
O  1.953  -1.338  -0.172
O  0.318  0.230  2.331
O  -0.940  2.252  0.409
O  1.760  1.614  0.075
O  -0.428  -0.086  -0.260
Ti  -2.042  -1.227  -0.572
Ti  0.721  -1.131  -1.416
O  0.729  0.540  -2.300
O  3.201  -0.076  2.277
O  -0.683  -2.284  -1.446
O  -2.899  -0.382  -1.641
   15
step   75
Ti  0.290  1.657  -0.869
Ti  -1.132  0.703  1.442
Ti  1.965  0.026  1.254
O  -2.422  -0.561  1.209
O  1.954  -1.339  -0.175
O  0.316  0.231  2.333
O  -0.941  2.253  0.409
O  1.761  1.617  0.077
O  -0.428  -0.084  -0.257
Ti  -2.042  -1.228  -0.571
Ti  0.721  -1.131  -1.418
O  0.728  0.539  -2.301
O  3.200  -0.076  2.277
O  -0.680  -2.283  -1.444
O  -2.896  -0.380  -1.640
   15
step   76
Ti  0.291  1.655  -0.869
Ti  -1.131  0.703  1.442
Ti  1.963  0.027  1.252
O  -2.423  -0.560  1.208
O  1.954  -1.339  -0.178
O  0.314  0.231  2.334
O  -0.941  2.254  0.408
O  1.761  1.621  0.078
O  -0.427  -0.082  -0.255
Ti  -2.042  -1.229  -0.569
Ti  0.720  -1.132  -1.419
O  0.727  0.538  -2.302
O  3.200  -0.076  2.277
O  -0.678  -2.282  -1.443
O  -2.894  -0.377  -1.640
   15