   15
step    0
Ti  0.246  0.146  1.864
Ti  -1.845  0.611  0.031
Ti  0.291  0.127  -1.857
Ti  -0.499  -2.238  -0.009
Ti  1.804  1.621  -0.008
O  0.257  -1.612  -1.755
O  1.822  1.025  -1.865
O  1.221  3.149  0.127
O  0.085  0.435  -0.016
O  1.950  0.810  1.743
O  -1.334  0.866  -1.793
O  0.343  -1.624  1.761
O  -0.821  -3.815  0.054
O  -1.464  1.086  1.709
O  -2.050  -1.120  -0.026
   15
step    1
Ti  0.247  0.147  1.864
Ti  -1.845  0.610  0.030
Ti  0.291  0.128  -1.857
Ti  -0.499  -2.239  -0.009
Ti  1.805  1.622  -0.009
O  0.255  -1.611  -1.752
O  1.821  1.027  -1.864
O  1.220  3.147  0.127
O  0.087  0.435  -0.021
O  1.952  0.808  1.746
O  -1.334  0.864  -1.796
O  0.342  -1.623  1.762
O  -0.822  -3.814  0.052
O  -1.464  1.083  1.709
O  -2.053  -1.119  -0.022
   15
step    2
Ti  0.247  0.148  1.865
Ti  -1.845  0.609  0.028
Ti  0.292  0.129  -1.856
Ti  -0.498  -2.240  -0.008
Ti  1.805  1.624  -0.010
O  0.254  -1.612  -1.748
O  1.820  1.029  -1.863
O  1.219  3.145  0.127
O  0.091  0.435  -0.025
O  1.953  0.807  1.748
O  -1.336  0.863  -1.798
O  0.340  -1.622  1.763
O  -0.823  -3.814  0.051
O  -1.464  1.079  1.708
O  -2.058  -1.117  -0.018
   15
step    3
Ti  0.247  0.148  1.867
Ti  -1.845  0.608  0.026
Ti  0.292  0.131  -1.857
Ti  -0.497  -2.241  -0.008
Ti  1.806  1.626  -0.012
O  0.252  -1.613  -1.745
O  1.819  1.032  -1.861
O  1.218  3.143  0.127
O  0.095  0.435  -0.029
O  1.953  0.805  1.751
O  -1.339  0.863  -1.801
O  0.338  -1.621  1.764
O  -0.823  -3.815  0.049
O  -1.463  1.075  1.709
O  -2.062  -1.116  -0.013
   15
step    4
Ti  0.248  0.149  1.868
Ti  -1.845  0.607  0.023
Ti  0.293  0.131  -1.857
Ti  -0.495  -2.242  -0.008
Ti  1.807  1.627  -0.013
O  0.251  -1.615  -1.741
O  1.820  1.035  -1.858
O  1.217  3.141  0.127
O  0.101  0.435  -0.031
O  1.952  0.803  1.753
O  -1.344  0.864  -1.804
O  0.335  -1.619  1.765
O  -0.824  -3.816  0.048
O  -1.462  1.071  1.710
O  -2.067  -1.115  -0.008
   15
step    5
Ti  0.249  0.150  1.869
Ti  -1.846  0.605  0.020
Ti  0.293  0.132  -1.858
Ti  -0.494  -2.243  -0.007
Ti  1.808  1.629  -0.014
O  0.250  -1.617  -1.736
O  1.820  1.038  -1.856
O  1.216  3.139  0.126
O  0.107  0.435  -0.032
O  1.951  0.802  1.755
O  -1.349  0.866  -1.807
O  0.331  -1.617  1.765
O  -0.825  -3.817  0.046
O  -1.461  1.067  1.711
O  -2.072  -1.114  -0.003
   15
step    6
Ti  0.250  0.150  1.871
Ti  -1.846  0.604  0.017
Ti  0.293  0.133  -1.860
Ti  -0.492  -2.244  -0.006
Ti  1.809  1.631  -0.015
O  0.249  -1.620  -1.731
O  1.822  1.043  -1.853
O  1.215  3.137  0.126
O  0.114  0.435  -0.031
O  1.949  0.801  1.757
O  -1.356  0.868  -1.809
O  0.328  -1.614  1.765
O  -0.826  -3.819  0.045
O  -1.460  1.063  1.713
O  -2.078  -1.112  0.003
   15
step    7
Ti  0.252  0.150  1.873
Ti  -1.847  0.602  0.013
Ti  0.293  0.133  -1.862
Ti  -0.491  -2.245  -0.006
Ti  1.811  1.633  -0.017
O  0.248  -1.624  -1.726
O  1.823  1.047  -1.849
O  1.215  3.136  0.125
O  0.122  0.435  -0.030
O  1.946  0.800  1.759
O  -1.363  0.871  -1.813
O  0.324  -1.612  1.764
O  -0.827  -3.822  0.043
O  -1.458  1.059  1.715
O  -2.084  -1.111  0.009
   15
step    8
Ti  0.253  0.151  1.875
Ti  -1.848  0.601  0.009
Ti  0.293  0.133  -1.865
Ti  -0.489  -2.245  -0.005
Ti  1.812  1.635  -0.018
O  0.247  -1.628  -1.720
O  1.826  1.052  -1.846
O  1.214  3.134  0.125
O  0.131  0.435  -0.028
O  1.943  0.799  1.761
O  -1.371  0.874  -1.816
O  0.319  -1.609  1.763
O  -0.828  -3.825  0.042
O  -1.456  1.055  1.717
O  -2.090  -1.110  0.014
   15
step    9
Ti  0.255  0.151  1.877
Ti  -1.848  0.600  0.005
Ti  0.293  0.133  -1.868
Ti  -0.487  -2.246  -0.004
Ti  1.813  1.637  -0.019
O  0.246  -1.633  -1.714
O  1.828  1.057  -1.842
O  1.213  3.133  0.124
O  0.140  0.435  -0.025
O  1.939  0.798  1.762
O  -1.379  0.878  -1.819
O  0.315  -1.605  1.762
O  -0.829  -3.828  0.040
O  -1.454  1.051  1.720
O  -2.097  -1.109  0.020
   15
step   10
Ti  0.257  0.151  1.879
Ti  -1.849  0.598  0.001
Ti  0.292  0.133  -1.871
Ti  -0.485  -2.247  -0.003
Ti  1.815  1.639  -0.020
O  0.245  -1.638  -1.708
O  1.831  1.062  -1.839
O  1.212  3.132  0.123
O  0.149  0.435  -0.021
O  1.934  0.798  1.763
O  -1.387  0.882  -1.822
O  0.310  -1.602  1.761
O  -0.830  -3.831  0.038
O  -1.452  1.048  1.723
O  -2.103  -1.107  0.026
   15
step   11
Ti  0.259  0.150  1.881
Ti  -1.850  0.597  -0.004
Ti  0.292  0.133  -1.875
Ti  -0.483  -2.248  -0.002
Ti  1.817  1.641  -0.021
O  0.245  -1.643  -1.701
O  1.834  1.067  -1.835
O  1.212  3.132  0.122
O  0.159  0.435  -0.017
O  1.929  0.798  1.764
O  -1.396  0.886  -1.825
O  0.305  -1.599  1.759
O  -0.831  -3.835  0.037
O  -1.449  1.044  1.726
O  -2.110  -1.106  0.032
   15
step   12
Ti  0.261  0.150  1.884
Ti  -1.851  0.596  -0.008
Ti  0.291  0.133  -1.879
Ti  -0.481  -2.248  -0.001
Ti  1.819  1.643  -0.022
O  0.244  -1.647  -1.695
O  1.837  1.073  -1.832
O  1.211  3.132  0.121
O  0.169  0.435  -0.012
O  1.924  0.798  1.765
O  -1.405  0.891  -1.828
O  0.299  -1.596  1.757
O  -0.832  -3.838  0.035
O  -1.447  1.040  1.729
O  -2.117  -1.105  0.038
   15
step   13
Ti  0.263  0.150  1.887
Ti  -1.852  0.594  -0.013
Ti  0.290  0.132  -1.883
Ti  -0.479  -2.249  0.000
Ti  1.821  1.645  -0.023
O  0.243  -1.652  -1.688
O  1.840  1.078  -1.828
O  1.210  3.133  0.120
O  0.178  0.435  -0.008
O  1.919  0.798  1.766
O  -1.414  0.895  -1.831
O  0.294  -1.592  1.754
O  -0.833  -3.842  0.033
O  -1.444  1.037  1.733
O  -2.124  -1.104  0.044
   15
step   14
Ti  0.265  0.150  1.889
Ti  -1.852  0.593  -0.017
Ti  0.289  0.132  -1.887
Ti  -0.477  -2.250  0.001
Ti  1.823  1.647  -0.023
O  0.243  -1.657  -1.681
O  1.843  1.083  -1.825
O  1.209  3.134  0.119
O  0.188  0.434  -0.003
O  1.914  0.799  1.767
O  -1.422  0.900  -1.834
O  0.288  -1.589  1.751
O  -0.834  -3.845  0.031
O  -1.441  1.033  1.736
O  -2.130  -1.103  0.050
   15
step   15
Ti  0.268  0.149  1.893
Ti  -1.853  0.592  -0.022
Ti  0.288  0.131  -1.891
Ti  -0.475  -2.251  0.003
Ti  1.825  1.649  -0.024
O  0.242  -1.660  -1.675
O  1.846  1.088  -1.822
O  1.208  3.136  0.118
O  0.197  0.434  0.001
O  1.909  0.800  1.768
O  -1.431  0.905  -1.837
O  0.282  -1.587  1.748
O  -0.836  -3.849  0.029
O  -1.438  1.030  1.739
O  -2.137  -1.103  0.055
   15
step   16
Ti  0.270  0.149  1.896
Ti  -1.854  0.591  -0.026
Ti  0.287  0.130  -1.896
Ti  -0.473  -2.252  0.005
Ti  1.828  1.650  -0.024
O  0.242  -1.664  -1.668
O  1.848  1.092  -1.820
O  1.208  3.138  0.117
O  0.206  0.433  0.005
O  1.904  0.802  1.769
O  -1.438  0.909  -1.840
O  0.275  -1.585  1.745
O  -0.837  -3.852  0.027
O  -1.435  1.026  1.742
O  -2.143  -1.102  0.061
   15
step   17
Ti  0.272  0.149  1.899
Ti  -1.854  0.590  -0.031
Ti  0.285  0.130  -1.900
Ti  -0.472  -2.254  0.006
Ti  1.830  1.652  -0.024
O  0.242  -1.666  -1.663
O  1.850  1.096  -1.817
O  1.207  3.141  0.115
O  0.215  0.433  0.008
O  1.900  0.804  1.769
O  -1.446  0.913  -1.843
O  0.269  -1.583  1.741
O  -0.838  -3.855  0.026
O  -1.432  1.023  1.745
O  -2.150  -1.101  0.066
   15
step   18
Ti  0.273  0.149  1.903
Ti  -1.855  0.589  -0.035
Ti  0.284  0.129  -1.905
Ti  -0.471  -2.255  0.008
Ti  1.833  1.653  -0.023
O  0.242  -1.668  -1.657
O  1.852  1.099  -1.816
O  1.206  3.144  0.114
O  0.223  0.432  0.010
O  1.896  0.807  1.770
O  -1.452  0.917  -1.847
O  0.262  -1.582  1.737
O  -0.839  -3.857  0.024
O  -1.429  1.019  1.748
O  -2.156  -1.101  0.072
   15
step   19
Ti  0.275  0.148  1.907
Ti  -1.855  0.588  -0.039
Ti  0.282  0.128  -1.909
Ti  -0.470  -2.257  0.011
Ti  1.836  1.655  -0.023
O  0.242  -1.670  -1.652
O  1.854  1.102  -1.814
O  1.205  3.148  0.112
O  0.231  0.431  0.011
O  1.893  0.810  1.771
O  -1.458  0.921  -1.850
O  0.255  -1.581  1.732
O  -0.840  -3.859  0.022
O  -1.426  1.015  1.750
O  -2.161  -1.101  0.077
   15
step   20
Ti  0.276  0.148  1.911
Ti  -1.855  0.587  -0.043
Ti  0.281  0.127  -1.914
Ti  -0.469  -2.258  0.013
Ti  1.839  1.656  -0.022
O  0.243  -1.670  -1.648
O  1.855  1.104  -1.813
O  1.205  3.151  0.111
O  0.239  0.429  0.012
O  1.891  0.813  1.771
O  -1.464  0.925  -1.853
O  0.248  -1.581  1.728
O  -0.840  -3.861  0.020
O  -1.423  1.012  1.752
O  -2.167  -1.100  0.082
   15
step   21
Ti  0.278  0.148  1.915
Ti  -1.856  0.586  -0.046
Ti  0.279  0.127  -1.918
Ti  -0.469  -2.260  0.016
Ti  1.842  1.658  -0.021
O  0.244  -1.670  -1.644
O  1.856  1.105  -1.812
O  1.204  3.156  0.109
O  0.246  0.428  0.011
O  1.890  0.817  1.772
O  -1.468  0.928  -1.856
O  0.241  -1.581  1.723
O  -0.841  -3.863  0.018
O  -1.420  1.008  1.753
O  -2.172  -1.100  0.087
   15
step   22
Ti  0.278  0.148  1.920
Ti  -1.856  0.585  -0.050
Ti  0.277  0.126  -1.922
Ti  -0.468  -2.262  0.018
Ti  1.845  1.660  -0.019
O  0.245  -1.668  -1.640
O  1.856  1.106  -1.812
O  1.204  3.160  0.108
O  0.251  0.426  0.009
O  1.889  0.821  1.773
O  -1.472  0.931  -1.859
O  0.234  -1.582  1.718
O  -0.842  -3.865  0.016
O  -1.417  1.004  1.755
O  -2.177  -1.099  0.092
   15
step   23
Ti  0.279  0.148  1.924
Ti  -1.856  0.584  -0.053
Ti  0.276  0.125  -1.926
Ti  -0.468  -2.264  0.021
Ti  1.848  1.662  -0.018
O  0.246  -1.667  -1.637
O  1.855  1.106  -1.812
O  1.204  3.165  0.106
O  0.256  0.425  0.007
O  1.889  0.826  1.774
O  -1.474  0.933  -1.862
O  0.227  -1.584  1.713
O  -0.842  -3.866  0.014
O  -1.414  1.000  1.755
O  -2.182  -1.099  0.096
   15
step   24
Ti  0.280  0.148  1.929
Ti  -1.856  0.583  -0.056
Ti  0.274  0.125  -1.930
Ti  -0.469  -2.267  0.024
Ti  1.851  1.664  -0.016
O  0.248  -1.664  -1.635
O  1.855  1.106  -1.813
O  1.204  3.169  0.104
O  0.260  0.423  0.003
O  1.890  0.831  1.775
O  -1.476  0.936  -1.865
O  0.220  -1.586  1.708
O  -0.842  -3.867  0.012
O  -1.411  0.996  1.755
O  -2.187  -1.098  0.100
   15
step   25
Ti  0.280  0.148  1.933
Ti  -1.855  0.582  -0.058
Ti  0.273  0.124  -1.934
Ti  -0.469  -2.269  0.027
Ti  1.853  1.666  -0.014
O  0.249  -1.661  -1.633
O  1.853  1.105  -1.815
O  1.204  3.174  0.102
O  0.263  0.421  -0.001
O  1.892  0.836  1.776
O  -1.477  0.938  -1.867
O  0.213  -1.588  1.703
O  -0.842  -3.869  0.011
O  -1.407  0.992  1.755
O  -2.192  -1.098  0.104
   15
step   26
Ti  0.280  0.148  1.938
Ti  -1.855  0.581  -0.061
Ti  0.271  0.123  -1.937
Ti  -0.470  -2.272  0.031
Ti  1.856  1.668  -0.011
O  0.251  -1.657  -1.631
O  1.851  1.103  -1.816
O  1.204  3.179  0.100
O  0.265  0.419  -0.006
O  1.894  0.842  1.777
O  -1.478  0.939  -1.870
O  0.206  -1.591  1.698
O  -0.842  -3.870  0.009
O  -1.404  0.988  1.755
O  -2.196  -1.097  0.107
   15
step   27
Ti  0.280  0.148  1.943
Ti  -1.854  0.580  -0.063
Ti  0.270  0.123  -1.941
Ti  -0.471  -2.274  0.034
Ti  1.859  1.671  -0.009
O  0.253  -1.652  -1.630
O  1.849  1.101  -1.819
O  1.205  3.183  0.098
O  0.266  0.417  -0.012
O  1.897  0.847  1.778
O  -1.477  0.941  -1.872
O  0.200  -1.594  1.693
O  -0.842  -3.871  0.007
O  -1.401  0.984  1.754
O  -2.200  -1.096  0.109
   15
step   28
Ti  0.279  0.148  1.947
Ti  -1.854  0.579  -0.064
Ti  0.268  0.123  -1.944
Ti  -0.472  -2.277  0.037
Ti  1.861  1.673  -0.007
O  0.256  -1.647  -1.629
O  1.846  1.098  -1.821
O  1.206  3.188  0.097
O  0.266  0.416  -0.018
O  1.900  0.854  1.779
O  -1.476  0.942  -1.874
O  0.194  -1.597  1.689
O  -0.842  -3.873  0.005
O  -1.397  0.980  1.753
O  -2.203  -1.096  0.111
   15
step   29
Ti  0.279  0.148  1.952
Ti  -1.853  0.578  -0.066
Ti  0.267  0.123  -1.947
Ti  -0.473  -2.280  0.040
Ti  1.864  1.676  -0.004
O  0.258  -1.641  -1.629
O  1.843  1.095  -1.824
O  1.208  3.192  0.095
O  0.265  0.414  -0.024
O  1.903  0.860  1.780
O  -1.474  0.942  -1.876
O  0.188  -1.601  1.685
O  -0.842  -3.874  0.004
O  -1.394  0.976  1.752
O  -2.206  -1.095  0.113
   15
step   30
Ti  0.278  0.148  1.956
Ti  -1.852  0.577  -0.067
Ti  0.265  0.122  -1.949
Ti  -0.475  -2.283  0.043
Ti  1.866  1.679  -0.001
O  0.260  -1.635  -1.629
O  1.840  1.091  -1.827
O  1.209  3.197  0.093
O  0.264  0.412  -0.030
O  1.907  0.867  1.781
O  -1.471  0.943  -1.878
O  0.182  -1.605  1.681
O  -0.841  -3.876  0.002
O  -1.390  0.972  1.750
O  -2.209  -1.094  0.114
   15
step   31
Ti  0.278  0.148  1.960
Ti  -1.851  0.576  -0.068
Ti  0.264  0.122  -1.952
Ti  -0.477  -2.286  0.046
Ti  1.868  1.683  0.001
O  0.263  -1.629  -1.629
O  1.836  1.086  -1.830
O  1.211  3.201  0.091
O  0.261  0.411  -0.036
O  1.911  0.874  1.782
O  -1.468  0.943  -1.879
O  0.176  -1.609  1.678
O  -0.841  -3.878  0.000
O  -1.386  0.968  1.749
O  -2.211  -1.093  0.114
   15
step   32
Ti  0.277  0.148  1.964
Ti  -1.849  0.574  -0.069
Ti  0.263  0.123  -1.955
Ti  -0.479  -2.289  0.049
Ti  1.870  1.686  0.004
O  0.265  -1.623  -1.630
O  1.832  1.082  -1.834
O  1.214  3.205  0.089
O  0.257  0.410  -0.043
O  1.915  0.881  1.784
O  -1.464  0.943  -1.880
O  0.171  -1.613  1.675
O  -0.840  -3.881  -0.001
O  -1.382  0.964  1.748
O  -2.213  -1.092  0.114
   15
step   33
Ti  0.276  0.148  1.967
Ti  -1.848  0.573  -0.069
Ti  0.262  0.123  -1.957
Ti  -0.481  -2.292  0.051
Ti  1.872  1.690  0.006
O  0.268  -1.617  -1.630
O  1.827  1.077  -1.838
O  1.217  3.209  0.088
O  0.253  0.409  -0.049
O  1.919  0.889  1.785
O  -1.459  0.943  -1.881
O  0.166  -1.617  1.673
O  -0.840  -3.884  -0.003
O  -1.377  0.961  1.746
O  -2.214  -1.091  0.113
   15
step   34
Ti  0.275  0.147  1.971
Ti  -1.846  0.572  -0.070
Ti  0.261  0.124  -1.959
Ti  -0.484  -2.295  0.053
Ti  1.873  1.693  0.009
O  0.270  -1.611  -1.631
O  1.823  1.072  -1.841
O  1.220  3.213  0.086
O  0.248  0.408  -0.054
O  1.922  0.897  1.787
O  -1.454  0.943  -1.881
O  0.161  -1.622  1.671
O  -0.839  -3.888  -0.004
O  -1.373  0.957  1.745
O  -2.215  -1.091  0.111
   15
step   35
Ti  0.275  0.147  1.974
Ti  -1.844  0.570  -0.070
Ti  0.260  0.124  -1.961
Ti  -0.487  -2.297  0.055
Ti  1.874  1.697  0.011
O  0.272  -1.606  -1.632
O  1.818  1.067  -1.845
O  1.224  3.217  0.084
O  0.243  0.407  -0.059
O  1.926  0.904  1.788
O  -1.449  0.943  -1.881
O  0.157  -1.626  1.671
O  -0.839  -3.892  -0.006
O  -1.368  0.954  1.744
O  -2.216  -1.090  0.110
   15
step   36
Ti  0.274  0.146  1.977
Ti  -1.842  0.569  -0.070
Ti  0.259  0.125  -1.963
Ti  -0.490  -2.300  0.057
Ti  1.875  1.701  0.014
O  0.274  -1.600  -1.634
O  1.813  1.062  -1.849
O  1.229  3.221  0.083
O  0.237  0.407  -0.064
O  1.928  0.912  1.790
O  -1.444  0.943  -1.881
O  0.153  -1.629  1.671
O  -0.838  -3.896  -0.007
O  -1.363  0.952  1.743
O  -2.216  -1.090  0.107
   15
step   37
Ti  0.273  0.145  1.979
Ti  -1.840  0.568  -0.070
Ti  0.258  0.126  -1.965
Ti  -0.493  -2.303  0.058
Ti  1.876  1.704  0.016
O  0.276  -1.596  -1.635
O  1.809  1.057  -1.854
O  1.234  3.225  0.081
O  0.230  0.407  -0.068
O  1.931  0.919  1.791
O  -1.439  0.943  -1.880
O  0.149  -1.633  1.672
O  -0.837  -3.901  -0.009
O  -1.359  0.949  1.743
O  -2.215  -1.089  0.105
   15
step   38
Ti  0.273  0.144  1.981
Ti  -1.838  0.566  -0.070
Ti  0.257  0.128  -1.967
Ti  -0.497  -2.306  0.059
Ti  1.876  1.708  0.018
O  0.278  -1.591  -1.636
O  1.804  1.052  -1.858
O  1.239  3.229  0.080
O  0.223  0.408  -0.071
O  1.933  0.927  1.792
O  -1.434  0.942  -1.879
O  0.146  -1.636  1.674
O  -0.837  -3.906  -0.010
O  -1.354  0.947  1.742
O  -2.214  -1.089  0.101
   15
step   39
Ti  0.273  0.143  1.983
Ti  -1.835  0.565  -0.069
Ti  0.256  0.129  -1.969
Ti  -0.500  -2.309  0.059
Ti  1.877  1.712  0.020
O  0.280  -1.588  -1.638
O  1.800  1.047  -1.861
O  1.245  3.234  0.079
O  0.216  0.408  -0.073
O  1.934  0.933  1.794
O  -1.430  0.942  -1.877
O  0.143  -1.639  1.677
O  -0.836  -3.912  -0.011
O  -1.349  0.945  1.742
O  -2.213  -1.090  0.098
   15
step   40
Ti  0.272  0.142  1.985
Ti  -1.832  0.564  -0.069
Ti  0.255  0.131  -1.971
Ti  -0.504  -2.312  0.059
Ti  1.877  1.716  0.022
O  0.282  -1.585  -1.639
O  1.797  1.043  -1.865
O  1.252  3.239  0.078
O  0.208  0.410  -0.075
O  1.935  0.940  1.795
O  -1.425  0.942  -1.875
O  0.140  -1.641  1.681
O  -0.835  -3.919  -0.012
O  -1.344  0.943  1.742
O  -2.211  -1.090  0.094
   15
step   41
Ti  0.272  0.141  1.986
Ti  -1.829  0.563  -0.069
Ti  0.254  0.132  -1.973
Ti  -0.508  -2.315  0.059
Ti  1.876  1.719  0.023
O  0.283  -1.582  -1.640
O  1.793  1.039  -1.868
O  1.258  3.243  0.077
O  0.201  0.411  -0.075
O  1.935  0.946  1.796
O  -1.421  0.942  -1.873
O  0.138  -1.643  1.685
O  -0.834  -3.925  -0.013
O  -1.339  0.942  1.743
O  -2.209  -1.091  0.089
   15
step   42
Ti  0.272  0.139  1.987
Ti  -1.826  0.562  -0.068
Ti  0.253  0.134  -1.975
Ti  -0.513  -2.318  0.058
Ti  1.876  1.723  0.025
O  0.284  -1.581  -1.641
O  1.790  1.035  -1.871
O  1.266  3.249  0.076
O  0.193  0.413  -0.075
O  1.935  0.952  1.798
O  -1.418  0.942  -1.871
O  0.136  -1.644  1.690
O  -0.834  -3.932  -0.014
O  -1.334  0.940  1.744
O  -2.207  -1.092  0.085
   15
step   43
Ti  0.273  0.137  1.987
Ti  -1.823  0.561  -0.067
Ti  0.253  0.136  -1.977
Ti  -0.517  -2.321  0.057
Ti  1.875  1.726  0.026
O  0.285  -1.580  -1.642
O  1.788  1.032  -1.874
O  1.273  3.254  0.076
O  0.185  0.415  -0.073
O  1.934  0.958  1.799
O  -1.414  0.942  -1.868
O  0.135  -1.646  1.696
O  -0.833  -3.940  -0.014
O  -1.329  0.940  1.745
O  -2.205  -1.093  0.080
   15
step   44
Ti  0.273  0.136  1.987
Ti  -1.819  0.560  -0.067
Ti  0.252  0.138  -1.980
Ti  -0.522  -2.324  0.056
Ti  1.874  1.730  0.027
O  0.286  -1.580  -1.642
O  1.786  1.029  -1.876
O  1.281  3.260  0.076
O  0.178  0.418  -0.071
O  1.932  0.964  1.800
O  -1.412  0.942  -1.865
O  0.134  -1.646  1.702
O  -0.832  -3.948  -0.015
O  -1.325  0.939  1.747
O  -2.202  -1.095  0.075
   15
step   45
Ti  0.274  0.134  1.987
Ti  -1.815  0.559  -0.066
Ti  0.252  0.140  -1.982
Ti  -0.527  -2.327  0.054
Ti  1.873  1.733  0.027
O  0.286  -1.581  -1.643
O  1.784  1.027  -1.878
O  1.289  3.266  0.075
O  0.170  0.421  -0.068
O  1.930  0.969  1.801
O  -1.410  0.943  -1.862
O  0.133  -1.646  1.709
O  -0.832  -3.955  -0.016
O  -1.320  0.939  1.749
O  -2.199  -1.097  0.070
   15
step   46
Ti  0.275  0.132  1.987
Ti  -1.811  0.559  -0.065
Ti  0.251  0.142  -1.984
Ti  -0.533  -2.330  0.052
Ti  1.872  1.736  0.028
O  0.286  -1.583  -1.643
O  1.783  1.024  -1.880
O  1.297  3.272  0.075
O  0.163  0.424  -0.064
O  1.928  0.975  1.801
O  -1.408  0.943  -1.858
O  0.133  -1.646  1.716
O  -0.831  -3.963  -0.016
O  -1.316  0.939  1.751
O  -2.196  -1.099  0.065
   15
step   47
Ti  0.276  0.130  1.986
Ti  -1.807  0.558  -0.065
Ti  0.251  0.144  -1.986
Ti  -0.538  -2.333  0.050
Ti  1.871  1.739  0.028
O  0.286  -1.585  -1.643
O  1.782  1.023  -1.881
O  1.306  3.280  0.075
O  0.155  0.427  -0.059
O  1.924  0.980  1.802
O  -1.407  0.944  -1.855
O  0.132  -1.646  1.722
O  -0.830  -3.971  -0.017
O  -1.313  0.939  1.753
O  -2.193  -1.101  0.060
   15
step   48
Ti  0.277  0.127  1.985
Ti  -1.802  0.558  -0.064
Ti  0.251  0.146  -1.988
Ti  -0.543  -2.336  0.048
Ti  1.869  1.741  0.029
O  0.285  -1.588  -1.642
O  1.782  1.021  -1.882
O  1.315  3.287  0.075
O  0.148  0.430  -0.053
O  1.921  0.985  1.802
O  -1.406  0.945  -1.851
O  0.132  -1.645  1.729
O  -0.829  -3.980  -0.017
O  -1.309  0.940  1.756
O  -2.190  -1.104  0.055
   15
step   49
Ti  0.278  0.125  1.984
Ti  -1.798  0.558  -0.063
Ti  0.250  0.147  -1.990
Ti  -0.549  -2.340  0.045
Ti  1.867  1.744  0.029
O  0.284  -1.591  -1.642
O  1.783  1.020  -1.882
O  1.324  3.295  0.075
O  0.142  0.434  -0.047
O  1.916  0.990  1.802
O  -1.406  0.946  -1.847
O  0.132  -1.644  1.736
O  -0.828  -3.988  -0.018
O  -1.306  0.941  1.760
O  -2.186  -1.106  0.050
   15
step   50
Ti  0.279  0.123  1.982
Ti  -1.793  0.558  -0.062
Ti  0.250  0.149  -1.992
Ti  -0.555  -2.343  0.042
Ti  1.865  1.747  0.029
O  0.283  -1.595  -1.641
O  1.784  1.020  -1.881
O  1.334  3.304  0.075
O  0.136  0.438  -0.041
O  1.912  0.995  1.801
O  -1.407  0.948  -1.844
O  0.133  -1.644  1.742
O  -0.827  -3.996  -0.018
O  -1.304  0.942  1.763
O  -2.183  -1.110  0.044
   15
step   51
Ti  0.281  0.120  1.980
Ti  -1.789  0.558  -0.061
Ti  0.250  0.151  -1.994
Ti  -0.561  -2.347  0.039
Ti  1.863  1.749  0.029
O  0.282  -1.599  -1.640
O  1.785  1.019  -1.881
O  1.344  3.314  0.075
O  0.130  0.441  -0.034
O  1.907  1.000  1.800
O  -1.408  0.949  -1.840
O  0.133  -1.643  1.749
O  -0.826  -4.003  -0.018
O  -1.302  0.944  1.767
O  -2.180  -1.113  0.039
   15
step   52
Ti  0.282  0.118  1.978
Ti  -1.784  0.558  -0.059
Ti  0.250  0.152  -1.996
Ti  -0.567  -2.351  0.036
Ti  1.861  1.751  0.029
O  0.280  -1.604  -1.638
O  1.787  1.019  -1.880
O  1.354  3.323  0.075
O  0.126  0.445  -0.027
O  1.901  1.004  1.799
O  -1.409  0.951  -1.837
O  0.134  -1.642  1.756
O  -0.825  -4.011  -0.018
O  -1.300  0.946  1.771
O  -2.176  -1.117  0.033
   15
step   53
Ti  0.284  0.115  1.976
Ti  -1.779  0.559  -0.058
Ti  0.250  0.153  -1.997
Ti  -0.573  -2.355  0.033
Ti  1.858  1.754  0.028
O  0.278  -1.608  -1.637
O  1.789  1.020  -1.878
O  1.365  3.333  0.075
O  0.122  0.449  -0.019
O  1.896  1.008  1.798
O  -1.411  0.953  -1.833
O  0.135  -1.641  1.762
O  -0.823  -4.018  -0.018
O  -1.299  0.949  1.776
O  -2.173  -1.121  0.027
   15
step   54
Ti  0.285  0.113  1.974
Ti  -1.775  0.559  -0.056
Ti  0.250  0.154  -1.999
Ti  -0.579  -2.360  0.030
Ti  1.855  1.756  0.028
O  0.276  -1.613  -1.635
O  1.791  1.020  -1.876
O  1.376  3.343  0.076
O  0.119  0.452  -0.012
O  1.890  1.012  1.796
O  -1.413  0.955  -1.830
O  0.136  -1.640  1.768
O  -0.821  -4.024  -0.017
O  -1.298  0.952  1.781
O  -2.169  -1.125  0.021
   15
step   55
Ti  0.287  0.110  1.971
Ti  -1.770  0.559  -0.054
Ti  0.250  0.155  -2.000
Ti  -0.584  -2.364  0.027
Ti  1.852  1.759  0.027
O  0.273  -1.617  -1.633
O  1.794  1.021  -1.874
O  1.387  3.353  0.076
O  0.117  0.456  -0.005
O  1.885  1.016  1.794
O  -1.415  0.957  -1.827
O  0.136  -1.640  1.774
O  -0.819  -4.030  -0.017
O  -1.298  0.955  1.786
O  -2.166  -1.129  0.015
   15
step   56
Ti  0.289  0.108  1.968
Ti  -1.765  0.560  -0.052
Ti  0.251  0.155  -2.001
Ti  -0.590  -2.369  0.024
Ti  1.849  1.762  0.026
O  0.271  -1.622  -1.631
O  1.796  1.022  -1.871
O  1.399  3.363  0.076
O  0.116  0.460  0.002
O  1.879  1.020  1.791
O  -1.418  0.960  -1.825
O  0.137  -1.639  1.780
O  -0.817  -4.035  -0.016
O  -1.299  0.959  1.791
O  -2.162  -1.133  0.009
   15
step   57
Ti  0.290  0.106  1.966
Ti  -1.761  0.560  -0.050
Ti  0.251  0.155  -2.003
Ti  -0.596  -2.374  0.020
Ti  1.845  1.765  0.025
O  0.268  -1.626  -1.628
O  1.799  1.024  -1.868
O  1.410  3.372  0.076
O  0.116  0.463  0.008
O  1.873  1.023  1.789
O  -1.420  0.962  -1.822
O  0.138  -1.640  1.785
O  -0.815  -4.039  -0.015
O  -1.299  0.962  1.796
O  -2.158  -1.138  0.003
   15
step   58
Ti  0.292  0.104  1.963
Ti  -1.757  0.560  -0.047
Ti  0.251  0.155  -2.003
Ti  -0.602  -2.379  0.017
Ti  1.841  1.768  0.024
O  0.265  -1.630  -1.626
O  1.802  1.025  -1.864
O  1.422  3.381  0.076
O  0.117  0.467  0.013
O  1.868  1.027  1.786
O  -1.423  0.964  -1.820
O  0.140  -1.640  1.790
O  -0.812  -4.042  -0.014
O  -1.301  0.966  1.801
O  -2.155  -1.142  -0.003
   15
step   59
Ti  0.294  0.102  1.960
Ti  -1.753  0.560  -0.045
Ti  0.251  0.155  -2.004
Ti  -0.607  -2.384  0.014
Ti  1.837  1.771  0.023
O  0.261  -1.633  -1.623
O  1.804  1.027  -1.860
O  1.434  3.389  0.076
O  0.119  0.471  0.018
O  1.862  1.031  1.783
O  -1.426  0.967  -1.818
O  0.141  -1.641  1.794
O  -0.809  -4.045  -0.013
O  -1.302  0.970  1.806
O  -2.151  -1.147  -0.009
   15
step   60
Ti  0.295  0.100  1.957
Ti  -1.749  0.561  -0.042
Ti  0.252  0.154  -2.005
Ti  -0.612  -2.390  0.012
Ti  1.833  1.775  0.022
O  0.258  -1.636  -1.620
O  1.807  1.029  -1.856
O  1.446  3.397  0.076
O  0.122  0.475  0.023
O  1.857  1.036  1.779
O  -1.429  0.969  -1.817
O  0.142  -1.642  1.797
O  -0.807  -4.047  -0.012
O  -1.305  0.975  1.811
O  -2.147  -1.152  -0.016
   15
step   61
Ti  0.296  0.098  1.954
Ti  -1.745  0.561  -0.038
Ti  0.252  0.153  -2.005
Ti  -0.617  -2.395  0.009
Ti  1.829  1.778  0.021
O  0.254  -1.639  -1.617
O  1.810  1.031  -1.851
O  1.459  3.403  0.076
O  0.125  0.479  0.026
O  1.852  1.040  1.776
O  -1.432  0.971  -1.815
O  0.143  -1.644  1.799
O  -0.804  -4.048  -0.011
O  -1.307  0.979  1.816
O  -2.143  -1.156  -0.022
   15
step   62
Ti  0.297  0.097  1.951
Ti  -1.742  0.561  -0.035
Ti  0.253  0.152  -2.005
Ti  -0.622  -2.400  0.006
Ti  1.824  1.782  0.020
O  0.250  -1.641  -1.614
O  1.812  1.033  -1.847
O  1.471  3.409  0.075
O  0.130  0.483  0.029
O  1.846  1.045  1.772
O  -1.434  0.973  -1.814
O  0.143  -1.646  1.801
O  -0.801  -4.049  -0.010
O  -1.311  0.983  1.821
O  -2.139  -1.161  -0.028
   15
step   63
Ti  0.298  0.095  1.949
Ti  -1.738  0.560  -0.031
Ti  0.253  0.150  -2.004
Ti  -0.627  -2.406  0.004
Ti  1.819  1.786  0.018
O  0.246  -1.642  -1.611
O  1.814  1.035  -1.842
O  1.484  3.414  0.075
O  0.136  0.488  0.030
O  1.841  1.050  1.769
O  -1.437  0.976  -1.813
O  0.144  -1.648  1.802
O  -0.798  -4.049  -0.008
O  -1.314  0.986  1.826
O  -2.135  -1.165  -0.034
   15
step   64
Ti  0.299  0.094  1.946
Ti  -1.735  0.560  -0.027
Ti  0.254  0.148  -2.004
Ti  -0.631  -2.412  0.002
Ti  1.814  1.790  0.017
O  0.242  -1.643  -1.607
O  1.815  1.037  -1.837
O  1.496  3.418  0.074
O  0.142  0.492  0.031
O  1.837  1.055  1.765
O  -1.439  0.978  -1.812
O  0.145  -1.651  1.802
O  -0.795  -4.048  -0.007
O  -1.318  0.990  1.830
O  -2.131  -1.169  -0.040
   15
step   65
Ti  0.300  0.093  1.943
Ti  -1.732  0.560  -0.023
Ti  0.255  0.146  -2.003
Ti  -0.635  -2.417  -0.000
Ti  1.809  1.795  0.015
O  0.238  -1.644  -1.604
O  1.817  1.039  -1.831
O  1.509  3.422  0.074
O  0.149  0.496  0.030
O  1.832  1.060  1.762
O  -1.441  0.980  -1.811
O  0.146  -1.654  1.802
O  -0.792  -4.047  -0.005
O  -1.322  0.994  1.834
O  -2.127  -1.173  -0.046
   15
step   66
Ti  0.301  0.092  1.940
Ti  -1.729  0.559  -0.019
Ti  0.256  0.143  -2.002
Ti  -0.639  -2.423  -0.002
Ti  1.804  1.799  0.014
O  0.234  -1.644  -1.601
O  1.818  1.041  -1.826
O  1.521  3.424  0.073
O  0.156  0.500  0.029
O  1.828  1.065  1.759
O  -1.442  0.981  -1.811
O  0.147  -1.656  1.800
O  -0.790  -4.046  -0.004
O  -1.327  0.997  1.838
O  -2.123  -1.176  -0.051
   15
step   67
Ti  0.301  0.091  1.937
Ti  -1.727  0.559  -0.014
Ti  0.257  0.141  -2.000
Ti  -0.642  -2.428  -0.003
Ti  1.799  1.804  0.012
O  0.229  -1.643  -1.597
O  1.818  1.044  -1.821
O  1.534  3.426  0.072
O  0.164  0.505  0.026
O  1.824  1.071  1.756
O  -1.443  0.983  -1.810
O  0.148  -1.659  1.798
O  -0.787  -4.045  -0.002
O  -1.331  1.000  1.841
O  -2.119  -1.178  -0.057
   15
step   68
Ti  0.301  0.091  1.934
Ti  -1.724  0.558  -0.010
Ti  0.258  0.138  -1.999
Ti  -0.645  -2.433  -0.005
Ti  1.794  1.809  0.011
O  0.225  -1.642  -1.594
O  1.819  1.046  -1.816
O  1.546  3.428  0.071
O  0.171  0.509  0.023
O  1.821  1.076  1.753
O  -1.444  0.984  -1.809
O  0.148  -1.662  1.795
O  -0.785  -4.044  -0.000
O  -1.336  1.002  1.844
O  -2.115  -1.181  -0.062
   15
step   69
Ti  0.301  0.090  1.932
Ti  -1.722  0.557  -0.005
Ti  0.259  0.135  -1.997
Ti  -0.648  -2.438  -0.006
Ti  1.788  1.813  0.009
O  0.221  -1.640  -1.591
O  1.818  1.048  -1.811
O  1.558  3.429  0.070
O  0.179  0.512  0.019
O  1.818  1.081  1.751
O  -1.444  0.985  -1.808
O  0.149  -1.665  1.791
O  -0.782  -4.043  0.001
O  -1.341  1.004  1.847
O  -2.111  -1.182  -0.068
   15
step   70
Ti  0.301  0.090  1.929
Ti  -1.720  0.556  -0.000
Ti  0.260  0.132  -1.995
Ti  -0.650  -2.442  -0.007
Ti  1.783  1.818  0.007
O  0.217  -1.638  -1.589
O  1.818  1.050  -1.806
O  1.570  3.430  0.068
O  0.186  0.516  0.014
O  1.815  1.086  1.749
O  -1.444  0.985  -1.807
O  0.149  -1.668  1.787
O  -0.780  -4.043  0.003
O  -1.346  1.005  1.849
O  -2.108  -1.183  -0.073
   15
step   71
Ti  0.301  0.090  1.926
Ti  -1.718  0.555  0.005
Ti  0.261  0.128  -1.992
Ti  -0.652  -2.446  -0.007
Ti  1.778  1.823  0.005
O  0.214  -1.636  -1.586
O  1.817  1.051  -1.801
O  1.582  3.431  0.067
O  0.193  0.519  0.008
O  1.813  1.090  1.747
O  -1.444  0.986  -1.805
O  0.150  -1.671  1.782
O  -0.778  -4.043  0.005
O  -1.351  1.006  1.851
O  -2.105  -1.183  -0.078
   15
step   72
Ti  0.301  0.090  1.924
Ti  -1.716  0.554  0.010
Ti  0.262  0.125  -1.990
Ti  -0.654  -2.449  -0.007
Ti  1.773  1.828  0.003
O  0.211  -1.633  -1.584
O  1.816  1.053  -1.796
O  1.593  3.432  0.065
O  0.200  0.522  0.002
O  1.811  1.095  1.745
O  -1.443  0.986  -1.804
O  0.150  -1.673  1.776
O  -0.776  -4.044  0.007
O  -1.355  1.006  1.852
O  -2.102  -1.182  -0.083
   15
step   73
Ti  0.300  0.090  1.921
Ti  -1.714  0.552  0.015
Ti  0.263  0.122  -1.987
Ti  -0.655  -2.452  -0.007
Ti  1.767  1.832  0.001
O  0.208  -1.631  -1.582
O  1.814  1.054  -1.792
O  1.605  3.433  0.064
O  0.207  0.524  -0.004
O  1.809  1.099  1.744
O  -1.441  0.985  -1.802
O  0.150  -1.675  1.770
O  -0.775  -4.046  0.009
O  -1.360  1.006  1.853
O  -2.100  -1.181  -0.088
   15
step   74
Ti  0.300  0.091  1.919
Ti  -1.713  0.551  0.020
Ti  0.264  0.118  -1.984
Ti  -0.656  -2.455  -0.007
Ti  1.763  1.836  -0.002
O  0.205  -1.628  -1.581
O  1.813  1.056  -1.788
O  1.616  3.435  0.062
O  0.213  0.526  -0.011
O  1.807  1.103  1.744
O  -1.440  0.984  -1.800
O  0.151  -1.677  1.763
O  -0.774  -4.049  0.011
O  -1.364  1.005  1.853
O  -2.098  -1.179  -0.092
   15
step   75
Ti  0.299  0.091  1.916
Ti  -1.712  0.550  0.025
Ti  0.265  0.115  -1.981
Ti  -0.657  -2.457  -0.007
Ti  1.758  1.840  -0.004
O  0.203  -1.625  -1.579
O  1.811  1.057  -1.784
O  1.626  3.437  0.060
O  0.219  0.527  -0.017
O  1.805  1.106  1.743
O  -1.438  0.983  -1.797
O  0.151  -1.678  1.756
O  -0.773  -4.052  0.013
O  -1.368  1.003  1.853
O  -2.097  -1.176  -0.097
   15
step   76
Ti  0.298  0.092  1.913
Ti  -1.710  0.548  0.030
Ti  0.266  0.111  -1.977
Ti  -0.657  -2.458  -0.006
Ti  1.753  1.844  -0.006
O  0.201  -1.622  -1.578
O  1.809  1.058  -1.780
O  1.637  3.440  0.058
O  0.224  0.528  -0.024
O  1.804  1.109  1.743
O  -1.435  0.982  -1.794
O  0.151  -1.679  1.748
O  -0.772  -4.056  0.014
O  -1.372  1.001  1.853
O  -2.096  -1.173  -0.101
   15
step   77
Ti  0.297  0.092  1.911
Ti  -1.709  0.547  0.035
Ti  0.267  0.108  -1.974
Ti  -0.657  -2.459  -0.005
Ti  1.749  1.848  -0.009
O  0.199  -1.619  -1.577
O  1.808  1.059  -1.777
O  1.647  3.444  0.055
O  0.229  0.528  -0.030
O  1.802  1.112  1.744
O  -1.432  0.980  -1.791
O  0.151  -1.680  1.740
O  -0.772  -4.060  0.016
O  -1.376  0.998  1.852
O  -2.096  -1.170  -0.104
   15
step   78
Ti  0.296  0.093  1.908