   12
step    0
Ti  -1.886  0.540  0.776
Ti  2.024  -0.386  0.454
O  0.057  0.064  0.508
O  -2.417  0.879  2.245
O  2.871  -0.372  1.810
O  1.218  -2.038  -0.168
Ti  0.208  1.246  -1.060
O  -0.224  -0.250  -2.002
Ti  -0.400  -1.461  -0.654
O  -2.008  -1.274  0.098
O  -1.281  1.969  -0.389
O  1.946  1.205  -0.655
   12
step    1
Ti  -1.887  0.539  0.775
Ti  2.023  -0.386  0.454
O  0.061  0.061  0.510
O  -2.413  0.878  2.245
O  2.873  -0.372  1.814
O  1.219  -2.039  -0.165
Ti  0.206  1.245  -1.061
O  -0.226  -0.249  -2.004
Ti  -0.399  -1.458  -0.654
O  -2.010  -1.271  0.097
O  -1.280  1.968  -0.387
O  1.946  1.206  -0.657
   12
step    2
Ti  -1.888  0.538  0.773
Ti  2.023  -0.386  0.454
O  0.064  0.058  0.512
O  -2.409  0.877  2.245
O  2.878  -0.372  1.820
O  1.220  -2.040  -0.161
Ti  0.204  1.243  -1.062
O  -0.227  -0.247  -2.005
Ti  -0.399  -1.456  -0.654
O  -2.012  -1.269  0.095
O  -1.278  1.966  -0.385
O  1.945  1.208  -0.658
   12
step    3
Ti  -1.891  0.537  0.771
Ti  2.022  -0.386  0.454
O  0.068  0.056  0.515
O  -2.403  0.876  2.245
O  2.884  -0.372  1.826
O  1.221  -2.041  -0.157
Ti  0.203  1.242  -1.063
O  -0.228  -0.246  -2.007
Ti  -0.398  -1.454  -0.655
O  -2.016  -1.266  0.094
O  -1.277  1.965  -0.384
O  1.943  1.210  -0.659
   12
step    4
Ti  -1.895  0.536  0.768
Ti  2.021  -0.386  0.455
O  0.071  0.053  0.518
O  -2.396  0.875  2.245
O  2.893  -0.372  1.833
O  1.222  -2.041  -0.153
Ti  0.202  1.240  -1.064
O  -0.229  -0.244  -2.008
Ti  -0.397  -1.452  -0.655
O  -2.020  -1.264  0.092
O  -1.275  1.963  -0.382
O  1.942  1.212  -0.660
   12
step    5
Ti  -1.900  0.535  0.764
Ti  2.021  -0.386  0.456
O  0.073  0.051  0.521
O  -2.387  0.874  2.245
O  2.904  -0.372  1.839
O  1.224  -2.041  -0.149
Ti  0.201  1.239  -1.064
O  -0.229  -0.242  -2.010
Ti  -0.396  -1.449  -0.656
O  -2.026  -1.262  0.089
O  -1.273  1.961  -0.381
O  1.940  1.214  -0.660
   12
step    6
Ti  -1.907  0.534  0.760
Ti  2.020  -0.386  0.458
O  0.075  0.049  0.524
O  -2.377  0.874  2.245
O  2.915  -0.372  1.846
O  1.225  -2.041  -0.144
Ti  0.200  1.237  -1.065
O  -0.229  -0.241  -2.011
Ti  -0.395  -1.447  -0.657
O  -2.031  -1.260  0.087
O  -1.271  1.960  -0.380
O  1.937  1.216  -0.660
   12
step    7
Ti  -1.914  0.532  0.756
Ti  2.020  -0.386  0.460
O  0.077  0.047  0.528
O  -2.365  0.874  2.245
O  2.926  -0.372  1.852
O  1.227  -2.041  -0.140
Ti  0.200  1.236  -1.065
O  -0.229  -0.239  -2.012
Ti  -0.394  -1.445  -0.658
O  -2.037  -1.258  0.084
O  -1.269  1.958  -0.378
O  1.934  1.218  -0.660
   12
step    8
Ti  -1.922  0.531  0.751
Ti  2.020  -0.386  0.462
O  0.078  0.045  0.531
O  -2.351  0.874  2.245
O  2.937  -0.372  1.857
O  1.228  -2.041  -0.135
Ti  0.199  1.235  -1.065
O  -0.228  -0.238  -2.014
Ti  -0.392  -1.443  -0.659
O  -2.041  -1.257  0.081
O  -1.267  1.956  -0.377
O  1.930  1.221  -0.659
   12
step    9
Ti  -1.931  0.530  0.745
Ti  2.019  -0.386  0.465
O  0.079  0.043  0.535
O  -2.336  0.874  2.245
O  2.946  -0.373  1.862
O  1.230  -2.040  -0.131
Ti  0.200  1.234  -1.066
O  -0.227  -0.236  -2.015
Ti  -0.391  -1.441  -0.660
O  -2.045  -1.256  0.078
O  -1.264  1.954  -0.376
O  1.926  1.223  -0.658
   12
step   10
Ti  -1.941  0.528  0.739
Ti  2.019  -0.386  0.469
O  0.079  0.041  0.539
O  -2.318  0.875  2.246
O  2.954  -0.373  1.866
O  1.231  -2.040  -0.126
Ti  0.200  1.233  -1.066
O  -0.225  -0.235  -2.016
Ti  -0.390  -1.439  -0.661
O  -2.048  -1.256  0.074
O  -1.262  1.952  -0.375
O  1.922  1.225  -0.656
   12
step   11
Ti  -1.951  0.527  0.733
Ti  2.019  -0.386  0.473
O  0.079  0.040  0.543
O  -2.299  0.875  2.247
O  2.959  -0.373  1.869
O  1.232  -2.039  -0.122
Ti  0.201  1.232  -1.066
O  -0.223  -0.235  -2.017
Ti  -0.388  -1.437  -0.661
O  -2.049  -1.256  0.070
O  -1.259  1.951  -0.374
O  1.917  1.227  -0.655
   12
step   12
Ti  -1.961  0.525  0.726
Ti  2.019  -0.386  0.478
O  0.078  0.039  0.547
O  -2.277  0.876  2.249
O  2.961  -0.374  1.870
O  1.234  -2.038  -0.117
Ti  0.201  1.231  -1.066
O  -0.221  -0.234  -2.018
Ti  -0.387  -1.435  -0.662
O  -2.049  -1.256  0.066
O  -1.256  1.949  -0.373
O  1.912  1.229  -0.653
   12
step   13
Ti  -1.972  0.524  0.719
Ti  2.019  -0.386  0.483
O  0.076  0.037  0.551
O  -2.252  0.878  2.251
O  2.959  -0.374  1.871
O  1.235  -2.036  -0.113
Ti  0.202  1.230  -1.066
O  -0.219  -0.234  -2.019
Ti  -0.385  -1.433  -0.663
O  -2.047  -1.257  0.061
O  -1.254  1.947  -0.372
O  1.906  1.231  -0.651
   12
step   14
Ti  -1.982  0.522  0.711
Ti  2.019  -0.386  0.489
O  0.074  0.037  0.554
O  -2.225  0.879  2.253
O  2.953  -0.374  1.870
O  1.236  -2.035  -0.109
Ti  0.203  1.230  -1.066
O  -0.216  -0.235  -2.020
Ti  -0.383  -1.431  -0.664
O  -2.043  -1.258  0.057
O  -1.252  1.945  -0.371
O  1.901  1.234  -0.648
   12
step   15
Ti  -1.993  0.521  0.703
Ti  2.019  -0.386  0.495
O  0.071  0.036  0.558
O  -2.195  0.880  2.256
O  2.944  -0.375  1.868
O  1.237  -2.033  -0.105
Ti  0.204  1.229  -1.066
O  -0.213  -0.236  -2.021
Ti  -0.382  -1.429  -0.664
O  -2.037  -1.259  0.052
O  -1.250  1.944  -0.370
O  1.895  1.236  -0.646
   12
step   16
Ti  -2.003  0.520  0.695
Ti  2.018  -0.385  0.501
O  0.067  0.035  0.561
O  -2.163  0.881  2.259
O  2.933  -0.375  1.866
O  1.238  -2.031  -0.101
Ti  0.206  1.229  -1.065
O  -0.209  -0.237  -2.022
Ti  -0.380  -1.427  -0.664
O  -2.031  -1.261  0.047
O  -1.248  1.942  -0.369
O  1.889  1.238  -0.643
   12
step   17
Ti  -2.014  0.519  0.687
Ti  2.018  -0.385  0.508
O  0.063  0.035  0.565
O  -2.130  0.882  2.262
O  2.919  -0.376  1.863
O  1.239  -2.029  -0.097
Ti  0.207  1.229  -1.065
O  -0.206  -0.239  -2.024
Ti  -0.378  -1.426  -0.665
O  -2.023  -1.264  0.042
O  -1.246  1.940  -0.369
O  1.884  1.240  -0.640
   12
step   18
Ti  -2.024  0.518  0.679
Ti  2.016  -0.385  0.514
O  0.059  0.035  0.568
O  -2.097  0.883  2.265
O  2.906  -0.377  1.860
O  1.240  -2.026  -0.094
Ti  0.208  1.229  -1.065
O  -0.202  -0.240  -2.025
Ti  -0.376  -1.424  -0.665
O  -2.015  -1.267  0.037
O  -1.245  1.939  -0.368
O  1.879  1.242  -0.637
   12
step   19
Ti  -2.035  0.517  0.671
Ti  2.015  -0.385  0.521
O  0.053  0.035  0.570
O  -2.064  0.884  2.267
O  2.894  -0.377  1.858
O  1.240  -2.024  -0.090
Ti  0.210  1.228  -1.064
O  -0.198  -0.243  -2.026
Ti  -0.374  -1.423  -0.665
O  -2.006  -1.270  0.033
O  -1.244  1.937  -0.367
O  1.875  1.244  -0.634
   12
step   20
Ti  -2.044  0.517  0.663
Ti  2.013  -0.385  0.527
O  0.048  0.035  0.572
O  -2.032  0.885  2.270
O  2.884  -0.378  1.856
O  1.241  -2.022  -0.087
Ti  0.211  1.228  -1.064
O  -0.194  -0.245  -2.028
Ti  -0.372  -1.421  -0.665
O  -1.999  -1.273  0.028
O  -1.243  1.936  -0.366
O  1.871  1.246  -0.630
   12
step   21
Ti  -2.054  0.517  0.656
Ti  2.010  -0.385  0.532
O  0.042  0.035  0.574
O  -2.002  0.886  2.271
O  2.879  -0.380  1.854
O  1.241  -2.020  -0.085
Ti  0.213  1.228  -1.064
O  -0.190  -0.248  -2.029
Ti  -0.370  -1.420  -0.665
O  -1.992  -1.277  0.024
O  -1.243  1.935  -0.366
O  1.868  1.248  -0.626
   12
step   22
Ti  -2.063  0.518  0.649
Ti  2.007  -0.386  0.537
O  0.035  0.036  0.575
O  -1.975  0.886  2.272
O  2.877  -0.381  1.854
O  1.241  -2.017  -0.082
Ti  0.214  1.228  -1.063
O  -0.187  -0.251  -2.031
Ti  -0.368  -1.419  -0.665
O  -1.986  -1.280  0.021
O  -1.243  1.933  -0.365
O  1.866  1.250  -0.622
   12
step   23
Ti  -2.072  0.519  0.643
Ti  2.003  -0.386  0.541
O  0.029  0.037  0.576
O  -1.951  0.886  2.271
O  2.880  -0.383  1.855
O  1.241  -2.015  -0.080
Ti  0.216  1.228  -1.063
O  -0.183  -0.253  -2.033
Ti  -0.366  -1.418  -0.665
O  -1.981  -1.284  0.017
O  -1.243  1.933  -0.364
O  1.865  1.251  -0.618
   12
step   24
Ti  -2.080  0.520  0.638
Ti  1.998  -0.387  0.545
O  0.022  0.038  0.576
O  -1.929  0.886  2.269
O  2.887  -0.384  1.856
O  1.241  -2.013  -0.078
Ti  0.217  1.228  -1.062
O  -0.179  -0.256  -2.035
Ti  -0.364  -1.417  -0.664
O  -1.978  -1.288  0.015
O  -1.244  1.932  -0.363
O  1.864  1.253  -0.614
   12
step   25
Ti  -2.087  0.522  0.633
Ti  1.993  -0.388  0.548
O  0.015  0.040  0.576
O  -1.910  0.885  2.266
O  2.897  -0.387  1.859
O  1.241  -2.011  -0.077
Ti  0.218  1.228  -1.062
O  -0.176  -0.259  -2.037
Ti  -0.362  -1.416  -0.664
O  -1.976  -1.291  0.013
O  -1.245  1.931  -0.362
O  1.864  1.254  -0.609
   12
step   26
Ti  -2.093  0.524  0.630
Ti  1.988  -0.389  0.550
O  0.008  0.041  0.576
O  -1.894  0.884  2.261
O  2.910  -0.389  1.861
O  1.241  -2.009  -0.075
Ti  0.219  1.228  -1.061
O  -0.173  -0.262  -2.040
Ti  -0.360  -1.415  -0.663
O  -1.976  -1.295  0.011
O  -1.246  1.931  -0.360
O  1.865  1.255  -0.605
   12
step   27
Ti  -2.098  0.527  0.628
Ti  1.982  -0.390  0.552
O  0.002  0.043  0.575
O  -1.880  0.883  2.256
O  2.925  -0.392  1.864
O  1.241  -2.008  -0.075
Ti  0.220  1.228  -1.061
O  -0.170  -0.265  -2.042
Ti  -0.358  -1.415  -0.663
O  -1.976  -1.299  0.010
O  -1.248  1.930  -0.359
O  1.866  1.256  -0.601
   12
step   28
Ti  -2.101  0.529  0.626
Ti  1.976  -0.390  0.553
O  -0.005  0.046  0.573
O  -1.869  0.881  2.249
O  2.940  -0.395  1.866
O  1.241  -2.006  -0.074
Ti  0.220  1.228  -1.061
O  -0.168  -0.268  -2.045
Ti  -0.356  -1.414  -0.662
O  -1.976  -1.303  0.010
O  -1.250  1.930  -0.357
O  1.868  1.257  -0.597
   12
step   29
Ti  -2.103  0.532  0.626
Ti  1.970  -0.391  0.554
O  -0.011  0.048  0.571
O  -1.861  0.880  2.240
O  2.954  -0.398  1.868
O  1.242  -2.004  -0.074
Ti  0.220  1.227  -1.061
O  -0.166  -0.271  -2.048
Ti  -0.355  -1.414  -0.661
O  -1.976  -1.306  0.011
O  -1.253  1.930  -0.355
O  1.871  1.257  -0.593
   12
step   30
Ti  -2.104  0.536  0.627
Ti  1.964  -0.392  0.554
O  -0.016  0.051  0.569
O  -1.855  0.878  2.231
O  2.968  -0.402  1.868
O  1.242  -2.003  -0.074
Ti  0.220  1.227  -1.061
O  -0.164  -0.274  -2.050
Ti  -0.353  -1.413  -0.660
O  -1.976  -1.310  0.012
O  -1.255  1.930  -0.353
O  1.873  1.257  -0.589
   12
step   31
Ti  -2.103  0.539  0.628
Ti  1.958  -0.393  0.555
O  -0.021  0.053  0.566
O  -1.852  0.876  2.222
O  2.979  -0.406  1.868
O  1.243  -2.001  -0.074
Ti  0.220  1.227  -1.061
O  -0.163  -0.276  -2.053
Ti  -0.352  -1.413  -0.659
O  -1.976  -1.314  0.014
O  -1.259  1.930  -0.351
O  1.876  1.257  -0.585
   12
step   32
Ti  -2.100  0.543  0.631
Ti  1.952  -0.394  0.555
O  -0.026  0.056  0.563
O  -1.852  0.875  2.212
O  2.989  -0.410  1.866
O  1.244  -2.000  -0.075
Ti  0.219  1.226  -1.061
O  -0.161  -0.279  -2.055
Ti  -0.351  -1.413  -0.658
O  -1.975  -1.318  0.016
O  -1.262  1.930  -0.349
O  1.879  1.257  -0.582
   12
step   33
Ti  -2.096  0.547  0.634
Ti  1.946  -0.394  0.555
O  -0.030  0.058  0.559
O  -1.853  0.873  2.201
O  2.996  -0.414  1.862
O  1.245  -1.999  -0.076
Ti  0.218  1.226  -1.061
O  -0.161  -0.281  -2.058
Ti  -0.350  -1.413  -0.657
O  -1.972  -1.321  0.019
O  -1.266  1.931  -0.348
O  1.883  1.256  -0.579
   12
step   34
Ti  -2.090  0.551  0.637
Ti  1.940  -0.395  0.555
O  -0.033  0.061  0.555
O  -1.857  0.872  2.191
O  3.000  -0.418  1.857
O  1.246  -1.998  -0.077
Ti  0.217  1.225  -1.061
O  -0.160  -0.283  -2.060
Ti  -0.350  -1.413  -0.655
O  -1.969  -1.325  0.023
O  -1.270  1.932  -0.346
O  1.886  1.255  -0.576
   12
step   35
Ti  -2.082  0.555  0.641
Ti  1.935  -0.395  0.555
O  -0.037  0.064  0.551
O  -1.864  0.871  2.182
O  3.000  -0.423  1.851
O  1.247  -1.997  -0.078
Ti  0.216  1.225  -1.061
O  -0.160  -0.285  -2.061
Ti  -0.350  -1.413  -0.654
O  -1.964  -1.328  0.027
O  -1.274  1.933  -0.344
O  1.889  1.254  -0.573
   12
step   36
Ti  -2.073  0.559  0.645
Ti  1.930  -0.396  0.555
O  -0.039  0.066  0.547
O  -1.872  0.870  2.173
O  2.998  -0.428  1.843
O  1.248  -1.997  -0.080
Ti  0.215  1.224  -1.061
O  -0.160  -0.286  -2.063
Ti  -0.350  -1.414  -0.653
O  -1.959  -1.332  0.032
O  -1.278  1.934  -0.343
O  1.893  1.252  -0.571
   12
step   37
Ti  -2.063  0.562  0.650
Ti  1.924  -0.396  0.555
O  -0.041  0.069  0.542
O  -1.882  0.870  2.166
O  2.994  -0.432  1.834
O  1.250  -1.996  -0.081
Ti  0.213  1.224  -1.062
O  -0.159  -0.287  -2.064
Ti  -0.350  -1.414  -0.652
O  -1.952  -1.335  0.037
O  -1.282  1.936  -0.342
O  1.896  1.250  -0.569
   12
step   38
Ti  -2.051  0.565  0.653
Ti  1.919  -0.396  0.555
O  -0.043  0.072  0.537
O  -1.894  0.870  2.161
O  2.987  -0.437  1.824
O  1.251  -1.996  -0.083
Ti  0.212  1.223  -1.062
O  -0.159  -0.288  -2.065
Ti  -0.350  -1.415  -0.651
O  -1.945  -1.339  0.043
O  -1.287  1.938  -0.342
O  1.898  1.248  -0.567
   12
step   39
Ti  -2.039  0.568  0.657
Ti  1.914  -0.396  0.556
O  -0.044  0.074  0.531
O  -1.908  0.871  2.157
O  2.978  -0.442  1.814
O  1.253  -1.997  -0.085
Ti  0.211  1.223  -1.062
O  -0.159  -0.288  -2.065
Ti  -0.350  -1.416  -0.650
O  -1.937  -1.342  0.048
O  -1.291  1.940  -0.342
O  1.901  1.246  -0.565
   12
step   40
Ti  -2.026  0.571  0.659
Ti  1.909  -0.395  0.557
O  -0.045  0.077  0.526
O  -1.924  0.872  2.156
O  2.969  -0.447  1.802
O  1.255  -1.998  -0.086
Ti  0.209  1.223  -1.062
O  -0.159  -0.288  -2.066
Ti  -0.351  -1.417  -0.649
O  -1.930  -1.345  0.054
O  -1.296  1.943  -0.343
O  1.903  1.244  -0.563
   12
step   41
Ti  -2.013  0.573  0.661
Ti  1.905  -0.395  0.558
O  -0.045  0.080  0.521
O  -1.942  0.874  2.158
O  2.960  -0.451  1.792
O  1.256  -1.999  -0.088
Ti  0.208  1.222  -1.062
O  -0.158  -0.288  -2.065
Ti  -0.351  -1.418  -0.648
O  -1.923  -1.349  0.061
O  -1.300  1.946  -0.345
O  1.905  1.242  -0.561
   12
step   42
Ti  -1.999  0.574  0.662
Ti  1.900  -0.394  0.559
O  -0.045  0.083  0.515
O  -1.962  0.877  2.163
O  2.953  -0.456  1.781
O  1.258  -2.000  -0.089
Ti  0.207  1.222  -1.062
O  -0.157  -0.287  -2.065
Ti  -0.352  -1.420  -0.648
O  -1.918  -1.352  0.067
O  -1.305  1.949  -0.347
O  1.906  1.240  -0.560
   12
step   43
Ti  -1.985  0.575  0.661
Ti  1.894  -0.393  0.560
O  -0.045  0.085  0.510
O  -1.983  0.880  2.170
O  2.947  -0.461  1.772
O  1.260  -2.002  -0.090
Ti  0.205  1.222  -1.062
O  -0.156  -0.285  -2.064
Ti  -0.352  -1.421  -0.648
O  -1.913  -1.356  0.074
O  -1.309  1.953  -0.350
O  1.907  1.237  -0.558
   12
step   44
Ti  -1.971  0.575  0.660
Ti  1.889  -0.392  0.561
O  -0.044  0.088  0.505
O  -2.005  0.884  2.179
O  2.943  -0.465  1.763
O  1.262  -2.004  -0.092
Ti  0.204  1.222  -1.062
O  -0.154  -0.283  -2.063
Ti  -0.352  -1.423  -0.649
O  -1.910  -1.359  0.080
O  -1.312  1.957  -0.353
O  1.907  1.235  -0.556
   12
step   45
Ti  -1.957  0.575  0.659
Ti  1.884  -0.390  0.562
O  -0.044  0.091  0.500
O  -2.029  0.888  2.190
O  2.942  -0.470  1.756
O  1.264  -2.006  -0.093
Ti  0.204  1.222  -1.062
O  -0.153  -0.281  -2.062
Ti  -0.352  -1.425  -0.649
O  -1.909  -1.363  0.087
O  -1.316  1.961  -0.358
O  1.907  1.233  -0.554
   12
step   46
Ti  -1.944  0.574  0.657
Ti  1.878  -0.389  0.563
O  -0.042  0.094  0.496
O  -2.053  0.893  2.202
O  2.944  -0.475  1.750
O  1.266  -2.008  -0.094
Ti  0.203  1.223  -1.061
O  -0.151  -0.278  -2.060
Ti  -0.352  -1.427  -0.650
O  -1.909  -1.367  0.093
O  -1.319  1.966  -0.363
O  1.906  1.231  -0.552
   12
step   47
Ti  -1.931  0.573  0.654
Ti  1.873  -0.387  0.564
O  -0.041  0.096  0.492
O  -2.077  0.898  2.215
O  2.948  -0.479  1.746
O  1.267  -2.011  -0.095
Ti  0.202  1.223  -1.061
O  -0.148  -0.275  -2.059
Ti  -0.351  -1.429  -0.652
O  -1.911  -1.370  0.100
O  -1.322  1.971  -0.368
O  1.904  1.229  -0.551
   12
step   48
Ti  -1.919  0.572  0.652
Ti  1.867  -0.385  0.565
O  -0.040  0.099  0.488
O  -2.101  0.903  2.228
O  2.954  -0.484  1.742
O  1.269  -2.013  -0.096
Ti  0.202  1.224  -1.061
O  -0.146  -0.271  -2.058
Ti  -0.351  -1.432  -0.653
O  -1.914  -1.374  0.106
O  -1.325  1.976  -0.375
O  1.902  1.227  -0.549
   12
step   49
Ti  -1.907  0.570  0.649
Ti  1.862  -0.383  0.566
O  -0.038  0.102  0.485
O  -2.123  0.908  2.241
O  2.962  -0.488  1.739
O  1.271  -2.016  -0.097
Ti  0.201  1.225  -1.060
O  -0.143  -0.268  -2.056
Ti  -0.351  -1.435  -0.655
O  -1.919  -1.378  0.111
O  -1.327  1.981  -0.382
O  1.900  1.226  -0.547
   12
step   50
Ti  -1.897  0.568  0.648
Ti  1.856  -0.381  0.568
O  -0.036  0.104  0.482
O  -2.143  0.912  2.253
O  2.969  -0.493  1.737
O  1.273  -2.019  -0.098
Ti  0.201  1.227  -1.060
O  -0.140  -0.264  -2.055
Ti  -0.350  -1.438  -0.657
O  -1.923  -1.381  0.117
O  -1.330  1.987  -0.389
O  1.897  1.225  -0.546
   12
step   51
Ti  -1.887  0.566  0.646
Ti  1.851  -0.379  0.569
O  -0.034  0.107  0.480
O  -2.161  0.916  2.264
O  2.977  -0.497  1.735
O  1.274  -2.021  -0.098
Ti  0.201  1.228  -1.060
O  -0.138  -0.260  -2.054
Ti  -0.350  -1.441  -0.659
O  -1.928  -1.384  0.122
O  -1.332  1.992  -0.397
O  1.893  1.223  -0.544
   12
step   52
Ti  -1.878  0.563  0.645
Ti  1.846  -0.376  0.570
O  -0.032  0.109  0.479
O  -2.176  0.920  2.274
O  2.983  -0.501  1.734
O  1.276  -2.024  -0.099
Ti  0.201  1.230  -1.059
O  -0.134  -0.256  -2.053
Ti  -0.349  -1.444  -0.662
O  -1.933  -1.387  0.127
O  -1.335  1.997  -0.406
O  1.889  1.222  -0.543
   12
step   53
Ti  -1.870  0.561  0.645
Ti  1.841  -0.374  0.572
O  -0.030  0.111  0.478
O  -2.187  0.923  2.282
O  2.988  -0.505  1.733
O  1.276  -2.026  -0.100
Ti  0.201  1.232  -1.059
O  -0.131  -0.252  -2.053
Ti  -0.348  -1.447  -0.664
O  -1.938  -1.390  0.132
O  -1.338  2.002  -0.414
O  1.885  1.222  -0.542
   12
step   54
Ti  -1.863  0.558  0.646
Ti  1.837  -0.372  0.574
O  -0.028  0.113  0.478
O  -2.196  0.926  2.289
O  2.990  -0.509  1.732
O  1.277  -2.028  -0.101
Ti  0.201  1.235  -1.059
O  -0.128  -0.249  -2.053
Ti  -0.348  -1.451  -0.667
O  -1.941  -1.393  0.136
O  -1.341  2.007  -0.424
O  1.881  1.221  -0.541
   12
step   55
Ti  -1.856  0.555  0.647
Ti  1.833  -0.370  0.576
O  -0.026  0.115  0.478
O  -2.200  0.928  2.294
O  2.991  -0.513  1.731
O  1.277  -2.029  -0.101
Ti  0.201  1.238  -1.059
O  -0.125  -0.245  -2.053
Ti  -0.347  -1.455  -0.670
O  -1.944  -1.395  0.140
O  -1.344  2.012  -0.433
O  1.877  1.220  -0.540
   12
step   56
Ti  -1.851  0.553  0.650
Ti  1.830  -0.367  0.578
O  -0.024  0.117  0.479
O  -2.201  0.929  2.298
O  2.991  -0.516  1.730
O  1.277  -2.031  -0.102
Ti  0.202  1.241  -1.059
O  -0.121  -0.242  -2.054
Ti  -0.347  -1.458  -0.674
O  -1.946  -1.397  0.143
O  -1.348  2.016  -0.443
O  1.872  1.220  -0.539
   12
step   57
Ti  -1.847  0.551  0.653
Ti  1.827  -0.365  0.580
O  -0.022  0.118  0.481
O  -2.199  0.929  2.299
O  2.988  -0.520  1.729
O  1.276  -2.032  -0.103
Ti  0.202  1.244  -1.059
O  -0.118  -0.239  -2.055
Ti  -0.347  -1.462  -0.677
O  -1.946  -1.398  0.146
O  -1.352  2.020  -0.453
O  1.869  1.219  -0.539
   12
step   58
Ti  -1.845  0.548  0.656
Ti  1.824  -0.363  0.582
O  -0.020  0.119  0.483
O  -2.193  0.929  2.299
O  2.984  -0.523  1.728
O  1.274  -2.033  -0.103
Ti  0.202  1.248  -1.059
O  -0.114  -0.236  -2.056
Ti  -0.347  -1.466  -0.680
O  -1.946  -1.399  0.149
O  -1.357  2.024  -0.463
O  1.865  1.219  -0.538
   12
step   59
Ti  -1.843  0.546  0.661
Ti  1.822  -0.362  0.585
O  -0.018  0.120  0.486
O  -2.183  0.928  2.297
O  2.980  -0.526  1.727
O  1.272  -2.033  -0.104
Ti  0.202  1.252  -1.060
O  -0.111  -0.234  -2.058
Ti  -0.347  -1.470  -0.684
O  -1.944  -1.400  0.151
O  -1.362  2.026  -0.473
O  1.862  1.219  -0.537
   12
step   60
Ti  -1.842  0.544  0.666
Ti  1.820  -0.360  0.588
O  -0.017  0.121  0.490
O  -2.171  0.927  2.294
O  2.974  -0.529  1.727
O  1.269  -2.034  -0.104
Ti  0.202  1.256  -1.060
O  -0.107  -0.232  -2.061
Ti  -0.347  -1.474  -0.687
O  -1.941  -1.400  0.153
O  -1.367  2.028  -0.483
O  1.859  1.219  -0.536
   12
step   61
Ti  -1.843  0.542  0.671
Ti  1.818  -0.359  0.591
O  -0.016  0.121  0.494
O  -2.156  0.925  2.289
O  2.969  -0.532  1.726
O  1.266  -2.034  -0.105
Ti  0.202  1.260  -1.061
O  -0.104  -0.230  -2.064
Ti  -0.347  -1.477  -0.691
O  -1.938  -1.400  0.154
O  -1.373  2.030  -0.493
O  1.858  1.219  -0.535
   12
step   62
Ti  -1.844  0.541  0.677
Ti  1.817  -0.357  0.594
O  -0.015  0.122  0.498
O  -2.139  0.923  2.283
O  2.964  -0.534  1.727
O  1.262  -2.033  -0.105
Ti  0.202  1.265  -1.062
O  -0.100  -0.229  -2.066
Ti  -0.347  -1.481  -0.695
O  -1.934  -1.400  0.154
O  -1.380  2.030  -0.503
O  1.856  1.219  -0.534
   12
step   63
Ti  -1.847  0.540  0.683
Ti  1.816  -0.356  0.597
O  -0.015  0.122  0.503
O  -2.120  0.920  2.276
O  2.961  -0.537  1.728
O  1.258  -2.033  -0.106
Ti  0.202  1.269  -1.062
O  -0.096  -0.228  -2.070
Ti  -0.348  -1.484  -0.699
O  -1.929  -1.399  0.155
O  -1.386  2.030  -0.512
O  1.856  1.219  -0.533
   12
step   64
Ti  -1.851  0.539  0.689
Ti  1.815  -0.355  0.600
O  -0.015  0.123  0.508
O  -2.099  0.917  2.269
O  2.959  -0.540  1.730
O  1.253  -2.032  -0.106
Ti  0.202  1.274  -1.063
O  -0.093  -0.227  -2.073
Ti  -0.348  -1.488  -0.703
O  -1.924  -1.398  0.154
O  -1.394  2.029  -0.522
O  1.856  1.220  -0.531
   12
step   65
Ti  -1.855  0.538  0.695
Ti  1.815  -0.355  0.603
O  -0.016  0.123  0.513
O  -2.078  0.914  2.261
O  2.959  -0.543  1.733
O  1.248  -2.031  -0.106
Ti  0.202  1.279  -1.065
O  -0.089  -0.227  -2.076
Ti  -0.349  -1.491  -0.707
O  -1.920  -1.397  0.154
O  -1.401  2.027  -0.532
O  1.857  1.221  -0.529
   12
step   66
Ti  -1.861  0.537  0.701
Ti  1.814  -0.355  0.606
O  -0.017  0.123  0.518
O  -2.056  0.911  2.254
O  2.962  -0.546  1.737
O  1.243  -2.030  -0.106
Ti  0.202  1.284  -1.066
O  -0.085  -0.227  -2.080
Ti  -0.350  -1.494  -0.711
O  -1.915  -1.395  0.153
O  -1.410  2.024  -0.542
O  1.858  1.221  -0.527
   12
step   67
Ti  -1.866  0.537  0.706
Ti  1.814  -0.355  0.610
O  -0.019  0.123  0.522
O  -2.035  0.908  2.247
O  2.968  -0.549  1.741
O  1.238  -2.029  -0.106
Ti  0.202  1.288  -1.067
O  -0.081  -0.227  -2.083
Ti  -0.351  -1.496  -0.715
O  -1.911  -1.393  0.151
O  -1.419  2.021  -0.551
O  1.860  1.222  -0.525
   12
step   68
Ti  -1.873  0.536  0.711
Ti  1.814  -0.355  0.613
O  -0.021  0.124  0.527
O  -2.014  0.906  2.241
O  2.977  -0.552  1.747
O  1.232  -2.027  -0.106
Ti  0.201  1.293  -1.068
O  -0.077  -0.227  -2.086
Ti  -0.352  -1.499  -0.720
O  -1.907  -1.391  0.149
O  -1.428  2.016  -0.561
O  1.863  1.223  -0.522
   12
step   69
Ti  -1.879  0.536  0.714
Ti  1.814  -0.355  0.617
O  -0.024  0.124  0.531
O  -1.993  0.904  2.237
O  2.987  -0.556  1.754
O  1.226  -2.026  -0.105
Ti  0.201  1.298  -1.070
O  -0.072  -0.227  -2.089
Ti  -0.353  -1.501  -0.725
O  -1.903  -1.388  0.147
O  -1.438  2.011  -0.570
O  1.866  1.224  -0.519
   12
step   70
Ti  -1.886  0.536  0.718
Ti  1.814  -0.356  0.620
O  -0.027  0.124  0.536
O  -1.974  0.902  2.235
O  2.999  -0.559  1.760
O  1.220  -2.024  -0.105
Ti  0.201  1.302  -1.071
O  -0.068  -0.228  -2.091
Ti  -0.354  -1.503  -0.729
O  -1.899  -1.385  0.145
O  -1.449  2.005  -0.580
O  1.870  1.225  -0.516
   12
step   71
Ti  -1.892  0.536  0.720
Ti  1.815  -0.357  0.624
O  -0.030  0.125  0.539
O  -1.956  0.901  2.234
O  3.012  -0.563  1.767
O  1.214  -2.023  -0.104
Ti  0.201  1.307  -1.072
O  -0.063  -0.228  -2.093
Ti  -0.355  -1.504  -0.734
O  -1.895  -1.382  0.142
O  -1.460  1.999  -0.589
O  1.874  1.226  -0.513
   12
step   72
Ti  -1.898  0.536  0.721
Ti  1.816  -0.358  0.628
O  -0.034  0.125  0.543
O  -1.939  0.901  2.236
O  3.024  -0.566  1.774
O  1.208  -2.021  -0.103
Ti  0.200  1.311  -1.074
O  -0.059  -0.229  -2.096
Ti  -0.357  -1.505  -0.739
O  -1.891  -1.379  0.140
O  -1.471  1.991  -0.598
O  1.878  1.227  -0.509
   12
step   73
Ti  -1.904  0.536  0.721
Ti  1.817  -0.360  0.633
O  -0.038  0.126  0.546
O  -1.924  0.901  2.240
O  3.035  -0.570  1.781
O  1.202  -2.020  -0.102
Ti  0.200  1.315  -1.075
O  -0.054  -0.229  -2.097
Ti  -0.358  -1.506  -0.744
O  -1.887  -1.376  0.137
O  -1.483  1.983  -0.606
O  1.883  1.228  -0.506
   12
step   74
Ti  -1.909  0.536  0.721
Ti  1.818  -0.361  0.637
O  -0.042  0.127  0.549
O  -1.910  0.902  2.246
O  3.044  -0.573  1.786
O  1.196  -2.018  -0.101
Ti  0.199  1.319  -1.077
O  -0.050  -0.230  -2.099
Ti  -0.360  -1.507  -0.749
O  -1.882  -1.373  0.134
O  -1.494  1.975  -0.614
O  1.888  1.229  -0.502
   12
step   75
Ti  -1.912  0.536  0.720
Ti  1.820  -0.363  0.642
O  -0.047  0.128  0.551
O  -1.897  0.904  2.254
O  3.050  -0.575  1.791
O  1.190  -2.016  -0.100
Ti  0.199  1.323  -1.078
O  -0.045  -0.230  -2.100
Ti  -0.361  -1.507  -0.754
O  -1.876  -1.370  0.132
O  -1.505  1.965  -0.622
O  1.892  1.229  -0.499
   12
step   76
Ti  -1.915  0.536  0.719
Ti  1.823  -0.365  0.646
O  -0.051  0.129  0.553
O  -1.886  0.906  2.263
O  3.052  -0.577  1.794
O  1.185  -2.015  -0.098
Ti  0.198  1.326  -1.079
O  -0.041  -0.230  -2.102
Ti  -0.363  -1.507  -0.759
O  -1.870  -1.367  0.129
O  -1.515  1.955  -0.630
O  1.896  1.230  -0.495
   12
step   77
Ti  -1.917  0.536  0.718
Ti  1.825  -0.367  0.651
O  -0.054  0.131  0.555
O  -1.875  0.908  2.274
O  3.051  -0.579  1.796
O  1.180  -2.013  -0.097
Ti  0.197  1.329  -1.081
O  -0.036  -0.230  -2.103
Ti  -0.365  -1.507  -0.764
O  -1.864  -1.365  0.127
O  -1.523  1.945  -0.637
O  1.900  1.230  -0.492
   12
step   78
Ti  -1.918  0.536  0.716
Ti  1.828  -0.369  0.656
O  -0.058  0.132  0.556
O  -1.867  0.911  2.286
O  3.046  -0.580  1.797
O  1.175  -2.011  -0.096
Ti  0.196  1.331  -1.082
O  -0.032  -0.230  -2.105
Ti  -0.367  -1.506  -0.769
O  -1.857  -1.362  0.126
O  -1.530  1.933  -0.643
O  1.903  1.231  -0.489
   12
step   79
Ti  -1.918  0.536  0.715
Ti  1.831  -0.371  0.660
O  -0.061  0.134  0.557
O  -1.860  0.914  2.299
O  3.038  -0.580  1.796
O  1.171  -2.010  -0.094
Ti  0.195  1.333  -1.083
O  -0.028  -0.229  -2.107
Ti  -0.369  -1.505  -0.774
O  -1.851  -1.360  0.124
O  -1.536  1.921  -0.649
O  1.906  1.231  -0.486
   12
step   80
Ti  -1.916  0.537  0.715
Ti  1.835  -0.373  0.664
O  -0.063  0.136  0.557
O  -1.856  0.916  2.312
O  3.028  -0.580  1.795
O  1.167  -2.008  -0.093
Ti  0.193  1.335  -1.084
O  -0.025  -0.228  -2.109
Ti  -0.371  -1.504  -0.779
O  -1.845  -1.358  0.124
O  -1.540  1.908  -0.654
O  1.908  1.231  -0.484
   12
step   81
Ti  -1.914  0.537  0.715
Ti  1.838  -0.375  0.668
O  -0.066  0.139  0.556
O  -1.854  0.919  2.326
O  3.016  -0.580  1.792
O  1.164  -2.007  -0.091
Ti  0.192  1.337  -1.085
O  -0.021  -0.227  -2.112
Ti  -0.372  -1.503  -0.783
O  -1.840  -1.356  0.123
O  -1.542  1.895  -0.659
O  1.909  1.231  -0.483
   12
step   82
Ti  -1.911  0.537  0.715
Ti  1.842  -0.377  0.672
O  -0.067  0.141  0.555
O  -1.854  0.922  2.340
O  3.004  -0.579  1.790
O  1.161  -2.005  -0.090
Ti  0.190  1.338  -1.086
O  -0.018  -0.225  -2.116
Ti  -0.374  -1.501  -0.788
O  -1.837  -1.354  0.123
O  -1.542  1.881  -0.663
O  1.910  1.231  -0.481
   12
step   83
Ti  -1.907  0.537  0.716
Ti  1.845  -0.379  0.675
O  -0.068  0.144  0.554
O  -1.856  0.925  2.353
O  2.993  -0.578  1.787
O  1.158  -2.004  -0.088
Ti  0.188  1.338  -1.087
O  -0.014  -0.224  -2.121
Ti  -0.376  -1.500  -0.793
O  -1.835  -1.353  0.123
O  -1.541  1.867  -0.667
O  1.910  1.231  -0.481
   12
step   84
Ti  -1.903  0.538  0.718
Ti  1.848  -0.381  0.678
O  -0.068  0.147  0.552
O  -1.861  0.928  2.367
O  2.984  -0.577  1.784
O  1.155  -2.003  -0.086
Ti  0.187  1.339  -1.088
O  -0.011  -0.221  -2.126
Ti  -0.377  -1.498  -0.797
O  -1.835  -1.352  0.123
O  -1.539  1.853  -0.670
O  1.909  1.231  -0.480
   12
step   85
Ti  -1.898  0.538  0.720
Ti  1.851  -0.382  0.680
O  -0.068  0.150  0.549
O  -1.869  0.931  2.379
O  2.977  -0.576  1.783
O  1.153  -2.002  -0.084
Ti  0.185  1.338  -1.088
O  -0.007  -0.219  -2.133
Ti  -0.378  -1.496  -0.802
O  -1.838  -1.351  0.124
O  -1.536  1.839  -0.673
O  1.908  1.231  -0.480
   12
step   86
Ti  -1.892  0.539  0.723
Ti  1.853  -0.383  0.681
O  -0.067  0.154  0.546
O  -1.878  0.934  2.392
O  2.973  -0.575  1.782
O  1.152  -2.001  -0.082
Ti  0.183  1.338  -1.089
O  -0.004  -0.216  -2.141
Ti  -0.379  -1.493  -0.806
O  -1.842  -1.350  0.125
O  -1.532  1.824  -0.675
O  1.905  1.230  -0.481
   12
step   87
Ti  -1.887  0.540  0.727
Ti  1.855  -0.384  0.682
O  -0.066  0.157  0.543
O  -1.890  0.936  2.404
O  2.972  -0.574  1.783
O  1.150  -2.000  -0.079
Ti  0.181  1.337  -1.090
O  -0.001  -0.213  -2.150
Ti  -0.380  -1.491  -0.810
O  -1.848  -1.349  0.125
O  -1.528  1.810  -0.677
O  1.902  1.230  -0.482
   12
step   88
Ti  -1.881  0.540  0.732
Ti  1.856  -0.385  0.682
O  -0.064  0.161  0.539
O  -1.905  0.939  2.415
O  2.975  -0.574  1.785
O  1.149  -2.000  -0.077
Ti  0.180  1.335  -1.090
O  0.003  -0.211  -2.160
Ti  -0.381  -1.488  -0.814
O  -1.856  -1.348  0.126
O  -1.523  1.796  -0.678
O  1.899  1.229  -0.483
   12
step   89
Ti  -1.875  0.541  0.738
Ti  1.857  -0.385  0.681
O  -0.061  0.165  0.535
O  -1.921  0.941  2.426
O  2.980  -0.573  1.788
O  1.147  -1.999  -0.075
Ti  0.178  1.333  -1.091
O  0.006  -0.207  -2.172
Ti  -0.382  -1.485  -0.818
O  -1.866  -1.347  0.126
O  -1.517  1.782  -0.680
O  1.895  1.228  -0.484
   12
step   90
Ti  -1.869  0.542  0.744
Ti  1.857  -0.386  0.680
O  -0.058  0.168  0.530
O  -1.939  0.944  2.436
O  2.988  -0.572  1.791
O  1.146  -1.999  -0.072
Ti  0.177  1.330  -1.092
O  0.009  -0.204  -2.185
Ti  -0.383  -1.482  -0.821
O  -1.876  -1.346  0.127
O  -1.511  1.769  -0.680
O  1.891  1.227  -0.485
   12
step   91
Ti  -1.862  0.543  0.752
Ti  1.857  -0.386  0.678
O  -0.054  0.172  0.526
O  -1.959  0.946  2.446
O  2.997  -0.572  1.796
O  1.145  -1.999  -0.070
Ti  0.176  1.328  -1.093
O  0.012  -0.201  -2.199
Ti  -0.383  -1.479  -0.824
O  -1.887  -1.345  0.127
O  -1.505  1.756  -0.681
O  1.887  1.225  -0.487
   12
step   92
Ti  -1.856  0.544  0.760
Ti  1.857  -0.385  0.676
O  -0.050  0.176  0.521
O  -1.979  0.948  2.454
O  3.006  -0.571  1.800
O  1.144  -1.999  -0.067
Ti  0.175  1.324  -1.094
O  0.015  -0.198  -2.213
Ti  -0.384  -1.476  -0.827
O  -1.898  -1.344  0.128
O  -1.499  1.744  -0.681
O  1.882  1.224  -0.489
   12
step   93
Ti  -1.849  0.545  0.769
Ti  1.857  -0.385  0.673
O  -0.045  0.179  0.516
O  -1.998  0.949  2.462
O  3.014  -0.570  1.804
O  1.143  -2.000  -0.065
Ti  0.174  1.321  -1.096
O  0.018  -0.195  -2.228
Ti  -0.385  -1.472  -0.830
O  -1.908  -1.344  0.128
O  -1.492  1.732  -0.681
O  1.878  1.222  -0.491
   12
step   94
Ti  -1.842  0.546  0.779
Ti  1.856  -0.384  0.670
O  -0.040  0.182  0.510
O  -2.018  0.950  2.468
O  3.018  -0.568  1.807
O  1.141  -2.000  -0.063
Ti  0.173  1.317  -1.097
O  0.020  -0.193  -2.243
Ti  -0.385  -1.469  -0.832
O  -1.917  -1.343  0.129
O  -1.485  1.721  -0.680
O  1.873  1.221  -0.492
   12
step   95
Ti  -1.836  0.547  0.790
Ti  1.856  -0.383  0.666
O  -0.034  0.185  0.505