   18
step    0
O  -1.315  -2.245  -0.334
O  -0.793  2.675  0.263
O  2.553  0.286  0.690
Ti  1.636  0.138  -0.918
Ti  -1.775  -0.557  -0.279
Ti  -0.722  2.144  -1.648
O  0.318  0.960  2.740
Ti  0.521  -2.749  -0.079
O  1.404  -1.532  -1.328
O  -2.331  0.384  1.223
O  1.054  1.460  -1.907
Ti  -0.930  1.466  1.489
Ti  1.318  -0.298  1.846
O  0.860  -4.298  -0.269
O  1.020  -1.993  1.687
O  -1.202  3.266  -2.678
O  -1.752  0.483  -1.667
O  0.041  0.122  0.349
   18
step    1
O  -1.314  -2.246  -0.335
O  -0.794  2.674  0.260
O  2.558  0.282  0.691
Ti  1.638  0.137  -0.918
Ti  -1.775  -0.558  -0.277
Ti  -0.722  2.143  -1.647
O  0.315  0.957  2.738
Ti  0.519  -2.748  -0.080
O  1.403  -1.528  -1.330
O  -2.332  0.388  1.222
O  1.055  1.459  -1.905
Ti  -0.930  1.467  1.488
Ti  1.317  -0.298  1.847
O  0.859  -4.294  -0.269
O  1.024  -1.991  1.687
O  -1.203  3.263  -2.677
O  -1.753  0.484  -1.666
O  0.042  0.122  0.348
   18
step    2
O  -1.313  -2.247  -0.336
O  -0.795  2.674  0.257
O  2.563  0.279  0.692
Ti  1.640  0.136  -0.919
Ti  -1.775  -0.559  -0.275
Ti  -0.723  2.142  -1.646
O  0.312  0.955  2.737
Ti  0.517  -2.746  -0.081
O  1.402  -1.524  -1.332
O  -2.334  0.392  1.220
O  1.057  1.459  -1.903
Ti  -0.930  1.468  1.486
Ti  1.316  -0.298  1.848
O  0.858  -4.292  -0.269
O  1.028  -1.991  1.688
O  -1.204  3.260  -2.675
O  -1.755  0.486  -1.666
O  0.043  0.122  0.348
   18
step    3
O  -1.313  -2.249  -0.337
O  -0.796  2.674  0.254
O  2.568  0.276  0.693
Ti  1.643  0.135  -0.918
Ti  -1.774  -0.559  -0.272
Ti  -0.723  2.141  -1.644
O  0.309  0.954  2.736
Ti  0.515  -2.744  -0.082
O  1.401  -1.521  -1.334
O  -2.336  0.396  1.220
O  1.058  1.458  -1.902
Ti  -0.930  1.468  1.485
Ti  1.315  -0.298  1.849
O  0.858  -4.290  -0.269
O  1.033  -1.991  1.689
O  -1.206  3.258  -2.675
O  -1.757  0.487  -1.666
O  0.043  0.122  0.347
   18
step    4
O  -1.312  -2.251  -0.338
O  -0.797  2.674  0.251
O  2.574  0.273  0.694
Ti  1.645  0.134  -0.918
Ti  -1.774  -0.560  -0.270
Ti  -0.723  2.139  -1.643
O  0.307  0.952  2.736
Ti  0.513  -2.742  -0.083
O  1.400  -1.519  -1.337
O  -2.338  0.400  1.219
O  1.058  1.458  -1.901
Ti  -0.930  1.469  1.483
Ti  1.315  -0.298  1.850
O  0.858  -4.289  -0.269
O  1.037  -1.991  1.689
O  -1.208  3.257  -2.675
O  -1.758  0.489  -1.667
O  0.044  0.122  0.346
   18
step    5
O  -1.311  -2.254  -0.340
O  -0.798  2.675  0.248
O  2.579  0.270  0.695
Ti  1.647  0.133  -0.918
Ti  -1.774  -0.560  -0.268
Ti  -0.723  2.137  -1.641
O  0.304  0.951  2.736
Ti  0.511  -2.739  -0.084
O  1.399  -1.517  -1.339
O  -2.341  0.404  1.218
O  1.059  1.458  -1.900
Ti  -0.930  1.470  1.482
Ti  1.314  -0.298  1.851
O  0.858  -4.289  -0.270
O  1.041  -1.993  1.690
O  -1.210  3.257  -2.676
O  -1.760  0.490  -1.668
O  0.045  0.122  0.345
   18
step    6
O  -1.311  -2.256  -0.341
O  -0.799  2.677  0.245
O  2.585  0.267  0.696
Ti  1.650  0.132  -0.918
Ti  -1.774  -0.561  -0.266
Ti  -0.723  2.135  -1.639
O  0.301  0.950  2.737
Ti  0.508  -2.736  -0.084
O  1.398  -1.516  -1.343
O  -2.344  0.407  1.217
O  1.060  1.459  -1.900
Ti  -0.930  1.471  1.481
Ti  1.313  -0.298  1.852
O  0.858  -4.290  -0.270
O  1.045  -1.994  1.690
O  -1.213  3.257  -2.678
O  -1.763  0.492  -1.669
O  0.045  0.121  0.344
   18
step    7
O  -1.310  -2.259  -0.342
O  -0.800  2.679  0.241
O  2.591  0.265  0.697
Ti  1.652  0.131  -0.917
Ti  -1.774  -0.561  -0.264
Ti  -0.722  2.133  -1.637
O  0.298  0.949  2.738
Ti  0.506  -2.733  -0.085
O  1.396  -1.516  -1.346
O  -2.347  0.411  1.217
O  1.061  1.459  -1.901
Ti  -0.930  1.472  1.480
Ti  1.313  -0.297  1.853
O  0.859  -4.292  -0.271
O  1.049  -1.997  1.691
O  -1.215  3.257  -2.680
O  -1.765  0.493  -1.670
O  0.046  0.120  0.343
   18
step    8
O  -1.310  -2.262  -0.344
O  -0.801  2.682  0.238
O  2.597  0.262  0.698
Ti  1.655  0.131  -0.917
Ti  -1.774  -0.562  -0.262
Ti  -0.722  2.130  -1.635
O  0.295  0.949  2.740
Ti  0.504  -2.730  -0.086
O  1.395  -1.516  -1.350
O  -2.351  0.414  1.216
O  1.061  1.460  -1.901
Ti  -0.930  1.472  1.479
Ti  1.313  -0.297  1.854
O  0.859  -4.294  -0.272
O  1.052  -2.000  1.691
O  -1.218  3.258  -2.682
O  -1.767  0.494  -1.672
O  0.046  0.120  0.342
   18
step    9
O  -1.310  -2.265  -0.345
O  -0.801  2.685  0.235
O  2.603  0.259  0.700
Ti  1.658  0.131  -0.916
Ti  -1.774  -0.562  -0.260
Ti  -0.722  2.128  -1.633
O  0.292  0.949  2.743
Ti  0.502  -2.727  -0.086
O  1.394  -1.517  -1.354
O  -2.354  0.417  1.216
O  1.062  1.461  -1.902
Ti  -0.930  1.473  1.478
Ti  1.313  -0.296  1.855
O  0.860  -4.296  -0.273
O  1.056  -2.003  1.692
O  -1.222  3.259  -2.685
O  -1.770  0.495  -1.674
O  0.046  0.119  0.341
   18
step   10
O  -1.310  -2.268  -0.347
O  -0.802  2.688  0.232
O  2.610  0.257  0.702
Ti  1.661  0.130  -0.916
Ti  -1.774  -0.562  -0.259
Ti  -0.722  2.125  -1.631
O  0.290  0.949  2.745
Ti  0.501  -2.723  -0.087
O  1.392  -1.519  -1.358
O  -2.359  0.420  1.216
O  1.062  1.462  -1.903
Ti  -0.930  1.474  1.477
Ti  1.313  -0.296  1.856
O  0.861  -4.298  -0.274
O  1.059  -2.007  1.692
O  -1.225  3.260  -2.688
O  -1.772  0.496  -1.675
O  0.046  0.118  0.340
   18
step   11
O  -1.311  -2.272  -0.349
O  -0.803  2.692  0.230
O  2.616  0.255  0.703
Ti  1.664  0.130  -0.915
Ti  -1.774  -0.563  -0.257
Ti  -0.721  2.123  -1.629
O  0.287  0.949  2.749
Ti  0.499  -2.720  -0.087
O  1.391  -1.521  -1.362
O  -2.363  0.423  1.215
O  1.063  1.463  -1.904
Ti  -0.930  1.475  1.476
Ti  1.313  -0.295  1.857
O  0.862  -4.301  -0.275
O  1.062  -2.010  1.693
O  -1.228  3.261  -2.691
O  -1.775  0.496  -1.677
O  0.046  0.117  0.340
   18
step   12
O  -1.312  -2.275  -0.350
O  -0.804  2.696  0.227
O  2.621  0.252  0.705
Ti  1.667  0.130  -0.915
Ti  -1.774  -0.563  -0.255
Ti  -0.721  2.121  -1.627
O  0.284  0.949  2.752
Ti  0.498  -2.717  -0.088
O  1.389  -1.524  -1.367
O  -2.368  0.425  1.215
O  1.063  1.464  -1.906
Ti  -0.930  1.476  1.475
Ti  1.313  -0.295  1.857
O  0.863  -4.303  -0.276
O  1.065  -2.014  1.693
O  -1.231  3.262  -2.694
O  -1.777  0.496  -1.678
O  0.046  0.116  0.339
   18
step   13
O  -1.313  -2.278  -0.352
O  -0.805  2.700  0.225
O  2.627  0.250  0.708
Ti  1.671  0.130  -0.914
Ti  -1.774  -0.563  -0.254
Ti  -0.721  2.119  -1.626
O  0.281  0.950  2.756
Ti  0.496  -2.714  -0.088
O  1.388  -1.527  -1.372
O  -2.372  0.428  1.215
O  1.064  1.465  -1.907
Ti  -0.930  1.477  1.475
Ti  1.314  -0.295  1.858
O  0.864  -4.305  -0.277
O  1.068  -2.018  1.693
O  -1.234  3.263  -2.696
O  -1.780  0.496  -1.679
O  0.045  0.114  0.339
   18
step   14
O  -1.314  -2.281  -0.353
O  -0.806  2.704  0.224
O  2.632  0.248  0.710
Ti  1.674  0.130  -0.913
Ti  -1.774  -0.563  -0.253
Ti  -0.721  2.117  -1.624
O  0.278  0.951  2.760
Ti  0.495  -2.711  -0.089
O  1.386  -1.530  -1.377
O  -2.377  0.430  1.215
O  1.065  1.466  -1.909
Ti  -0.930  1.478  1.474
Ti  1.315  -0.294  1.859
O  0.865  -4.307  -0.278
O  1.070  -2.022  1.693
O  -1.237  3.263  -2.699
O  -1.783  0.495  -1.680
O  0.045  0.113  0.339
   18
step   15
O  -1.316  -2.284  -0.355
O  -0.807  2.708  0.222
O  2.636  0.246  0.712
Ti  1.677  0.130  -0.913
Ti  -1.775  -0.562  -0.252
Ti  -0.721  2.115  -1.623
O  0.276  0.952  2.765
Ti  0.495  -2.709  -0.089
O  1.384  -1.534  -1.382
O  -2.382  0.432  1.215
O  1.065  1.467  -1.911
Ti  -0.930  1.479  1.474
Ti  1.316  -0.294  1.860
O  0.866  -4.308  -0.280
O  1.073  -2.025  1.693
O  -1.239  3.263  -2.701
O  -1.785  0.494  -1.681
O  0.044  0.112  0.339
   18
step   16
O  -1.318  -2.287  -0.356
O  -0.808  2.712  0.221
O  2.640  0.245  0.715
Ti  1.681  0.131  -0.913
Ti  -1.775  -0.562  -0.251
Ti  -0.721  2.114  -1.622
O  0.273  0.953  2.769
Ti  0.494  -2.707  -0.090
O  1.383  -1.537  -1.387
O  -2.387  0.433  1.215
O  1.066  1.468  -1.912
Ti  -0.931  1.480  1.473
Ti  1.317  -0.294  1.860
O  0.867  -4.309  -0.281
O  1.075  -2.028  1.693
O  -1.241  3.262  -2.703
O  -1.788  0.493  -1.681
O  0.044  0.111  0.339
   18
step   17
O  -1.321  -2.290  -0.358
O  -0.809  2.716  0.220
O  2.644  0.243  0.717
Ti  1.684  0.131  -0.912
Ti  -1.776  -0.562  -0.251
Ti  -0.721  2.113  -1.622
O  0.271  0.954  2.773
Ti  0.494  -2.705  -0.091
O  1.381  -1.540  -1.392
O  -2.391  0.435  1.215
O  1.067  1.469  -1.914
Ti  -0.931  1.482  1.473
Ti  1.318  -0.294  1.861
O  0.867  -4.309  -0.282
O  1.076  -2.031  1.693
O  -1.243  3.261  -2.704
O  -1.790  0.491  -1.681
O  0.043  0.110  0.339
   18
step   18
O  -1.324  -2.292  -0.359
O  -0.810  2.720  0.220
O  2.647  0.242  0.720
Ti  1.688  0.131  -0.912
Ti  -1.776  -0.562  -0.250
Ti  -0.721  2.112  -1.622
O  0.269  0.955  2.778
Ti  0.494  -2.704  -0.091
O  1.379  -1.543  -1.396
O  -2.396  0.436  1.215
O  1.068  1.469  -1.915
Ti  -0.931  1.483  1.472
Ti  1.319  -0.294  1.862
O  0.868  -4.308  -0.283
O  1.078  -2.034  1.693
O  -1.245  3.259  -2.704
O  -1.793  0.489  -1.681
O  0.043  0.109  0.340
   18
step   19
O  -1.327  -2.295  -0.360
O  -0.810  2.723  0.220
O  2.650  0.240  0.723
Ti  1.691  0.131  -0.912
Ti  -1.777  -0.562  -0.250
Ti  -0.721  2.111  -1.622
O  0.267  0.957  2.782
Ti  0.494  -2.703  -0.092
O  1.378  -1.545  -1.401
O  -2.400  0.438  1.215
O  1.069  1.469  -1.917
Ti  -0.932  1.484  1.472
Ti  1.321  -0.294  1.862
O  0.868  -4.307  -0.284
O  1.079  -2.036  1.693
O  -1.246  3.257  -2.704
O  -1.795  0.487  -1.680
O  0.043  0.108  0.340
   18
step   20
O  -1.330  -2.297  -0.361
O  -0.811  2.727  0.221
O  2.652  0.239  0.725
Ti  1.694  0.131  -0.912
Ti  -1.778  -0.562  -0.250
Ti  -0.722  2.111  -1.622
O  0.265  0.958  2.786
Ti  0.494  -2.702  -0.092
O  1.376  -1.547  -1.405
O  -2.403  0.439  1.215
O  1.070  1.469  -1.918
Ti  -0.932  1.486  1.471
Ti  1.322  -0.294  1.863
O  0.868  -4.305  -0.284
O  1.081  -2.037  1.693
O  -1.246  3.254  -2.704
O  -1.798  0.484  -1.679
O  0.042  0.107  0.341
   18
step   21
O  -1.334  -2.298  -0.362
O  -0.812  2.731  0.221
O  2.653  0.238  0.728
Ti  1.698  0.131  -0.912
Ti  -1.779  -0.561  -0.250
Ti  -0.722  2.111  -1.623
O  0.264  0.959  2.789
Ti  0.494  -2.702  -0.093
O  1.375  -1.548  -1.409
O  -2.406  0.440  1.215
O  1.072  1.469  -1.919
Ti  -0.933  1.487  1.471
Ti  1.324  -0.294  1.864
O  0.868  -4.302  -0.285
O  1.082  -2.038  1.693
O  -1.247  3.251  -2.702
O  -1.800  0.481  -1.678
O  0.042  0.106  0.342
   18
step   22
O  -1.338  -2.300  -0.363
O  -0.812  2.734  0.223
O  2.654  0.237  0.731
Ti  1.701  0.131  -0.912
Ti  -1.780  -0.561  -0.251
Ti  -0.723  2.111  -1.624
O  0.262  0.960  2.793
Ti  0.495  -2.702  -0.094
O  1.373  -1.549  -1.413
O  -2.409  0.441  1.215
O  1.073  1.468  -1.919
Ti  -0.934  1.488  1.470
Ti  1.325  -0.295  1.864
O  0.868  -4.298  -0.286
O  1.082  -2.039  1.693
O  -1.247  3.247  -2.701
O  -1.802  0.478  -1.677
O  0.042  0.106  0.344
   18
step   23
O  -1.343  -2.301  -0.363
O  -0.813  2.738  0.224
O  2.655  0.236  0.733
Ti  1.705  0.131  -0.913
Ti  -1.781  -0.561  -0.251
Ti  -0.724  2.111  -1.625
O  0.261  0.962  2.796
Ti  0.496  -2.702  -0.094
O  1.372  -1.549  -1.416
O  -2.412  0.441  1.215
O  1.075  1.467  -1.920
Ti  -0.935  1.490  1.470
Ti  1.327  -0.295  1.865
O  0.868  -4.294  -0.286
O  1.083  -2.039  1.693
O  -1.247  3.242  -2.699
O  -1.804  0.475  -1.675
O  0.042  0.106  0.345
   18
step   24
O  -1.347  -2.301  -0.364
O  -0.814  2.741  0.226
O  2.655  0.235  0.736
Ti  1.708  0.131  -0.913
Ti  -1.782  -0.561  -0.252
Ti  -0.724  2.111  -1.626
O  0.261  0.963  2.798
Ti  0.496  -2.703  -0.095
O  1.371  -1.548  -1.419
O  -2.413  0.442  1.215
O  1.077  1.466  -1.920
Ti  -0.936  1.491  1.470
Ti  1.328  -0.296  1.866
O  0.868  -4.289  -0.287
O  1.084  -2.039  1.693
O  -1.246  3.237  -2.697
O  -1.806  0.472  -1.673
O  0.042  0.105  0.347
   18
step   25
O  -1.352  -2.302  -0.364
O  -0.814  2.744  0.228
O  2.655  0.235  0.738
Ti  1.711  0.130  -0.914
Ti  -1.783  -0.561  -0.252
Ti  -0.725  2.112  -1.627
O  0.260  0.964  2.801
Ti  0.497  -2.704  -0.096
O  1.370  -1.547  -1.422
O  -2.415  0.442  1.215
O  1.079  1.465  -1.920
Ti  -0.937  1.492  1.470
Ti  1.329  -0.297  1.867
O  0.868  -4.284  -0.287
O  1.084  -2.038  1.693
O  -1.245  3.232  -2.694
O  -1.808  0.469  -1.671
O  0.042  0.105  0.348
   18
step   26
O  -1.357  -2.302  -0.364
O  -0.814  2.747  0.230
O  2.654  0.234  0.740
Ti  1.714  0.130  -0.915
Ti  -1.784  -0.561  -0.253
Ti  -0.726  2.112  -1.629
O  0.260  0.965  2.802
Ti  0.498  -2.705  -0.097
O  1.369  -1.545  -1.425
O  -2.416  0.443  1.215
O  1.081  1.463  -1.920
Ti  -0.938  1.494  1.470
Ti  1.331  -0.298  1.867
O  0.868  -4.279  -0.288
O  1.084  -2.037  1.693
O  -1.244  3.227  -2.692
O  -1.809  0.466  -1.669
O  0.042  0.105  0.350
   18
step   27
O  -1.362  -2.302  -0.364
O  -0.815  2.750  0.233
O  2.653  0.234  0.742
Ti  1.717  0.129  -0.915
Ti  -1.786  -0.562  -0.254
Ti  -0.727  2.113  -1.631
O  0.260  0.966  2.804
Ti  0.499  -2.706  -0.098
O  1.368  -1.543  -1.428
O  -2.416  0.443  1.215
O  1.084  1.461  -1.919
Ti  -0.940  1.495  1.470
Ti  1.332  -0.299  1.868
O  0.868  -4.274  -0.288
O  1.084  -2.036  1.693
O  -1.243  3.222  -2.689
O  -1.811  0.463  -1.668
O  0.042  0.105  0.352
   18
step   28
O  -1.368  -2.301  -0.364
O  -0.815  2.753  0.236
O  2.651  0.233  0.744
Ti  1.720  0.129  -0.916
Ti  -1.787  -0.562  -0.255
Ti  -0.728  2.113  -1.632
O  0.260  0.966  2.805
Ti  0.501  -2.707  -0.098
O  1.368  -1.539  -1.430
O  -2.416  0.443  1.214
O  1.086  1.459  -1.918
Ti  -0.941  1.496  1.470
Ti  1.334  -0.300  1.869
O  0.868  -4.269  -0.289
O  1.084  -2.034  1.693
O  -1.242  3.217  -2.687
O  -1.813  0.459  -1.666
O  0.043  0.106  0.353
   18
step   29
O  -1.373  -2.301  -0.363
O  -0.815  2.755  0.239
O  2.649  0.233  0.745
Ti  1.723  0.128  -0.917
Ti  -1.789  -0.562  -0.256
Ti  -0.729  2.114  -1.634
O  0.260  0.967  2.805
Ti  0.502  -2.708  -0.099
O  1.367  -1.536  -1.432
O  -2.416  0.443  1.214
O  1.089  1.457  -1.917
Ti  -0.942  1.497  1.470
Ti  1.335  -0.301  1.871
O  0.868  -4.264  -0.289
O  1.084  -2.032  1.693
O  -1.241  3.213  -2.685
O  -1.814  0.457  -1.664
O  0.044  0.106  0.355
   18
step   30
O  -1.378  -2.300  -0.363
O  -0.815  2.758  0.243
O  2.647  0.233  0.747
Ti  1.726  0.127  -0.919
Ti  -1.790  -0.563  -0.257
Ti  -0.729  2.114  -1.635
O  0.261  0.968  2.805
Ti  0.503  -2.709  -0.100
O  1.367  -1.532  -1.434
O  -2.415  0.443  1.214
O  1.092  1.454  -1.916
Ti  -0.944  1.498  1.470
Ti  1.336  -0.302  1.872
O  0.868  -4.259  -0.289
O  1.084  -2.030  1.692
O  -1.240  3.209  -2.684
O  -1.815  0.454  -1.663
O  0.044  0.107  0.357
   18
step   31
O  -1.383  -2.299  -0.362
O  -0.815  2.760  0.246
O  2.644  0.233  0.748
Ti  1.728  0.127  -0.920
Ti  -1.792  -0.564  -0.257
Ti  -0.730  2.114  -1.636
O  0.262  0.968  2.805
Ti  0.504  -2.710  -0.101
O  1.367  -1.527  -1.435
O  -2.414  0.443  1.214
O  1.095  1.451  -1.914
Ti  -0.945  1.499  1.470
Ti  1.337  -0.303  1.873
O  0.869  -4.255  -0.290
O  1.083  -2.027  1.692
O  -1.239  3.206  -2.683
O  -1.816  0.451  -1.662
O  0.045  0.108  0.358
   18
step   32
O  -1.388  -2.298  -0.361
O  -0.816  2.762  0.250
O  2.642  0.234  0.748
Ti  1.731  0.126  -0.921
Ti  -1.793  -0.564  -0.258
Ti  -0.731  2.114  -1.637
O  0.263  0.968  2.804
Ti  0.504  -2.711  -0.102
O  1.366  -1.523  -1.437
O  -2.412  0.443  1.214
O  1.098  1.449  -1.913
Ti  -0.947  1.500  1.471
Ti  1.338  -0.304  1.874
O  0.870  -4.253  -0.290
O  1.082  -2.024  1.692
O  -1.239  3.203  -2.683
O  -1.818  0.449  -1.661
O  0.046  0.109  0.360
   18
step   33
O  -1.393  -2.297  -0.360
O  -0.815  2.764  0.253
O  2.639  0.234  0.749
Ti  1.733  0.125  -0.922
Ti  -1.795  -0.565  -0.259
Ti  -0.731  2.114  -1.638
O  0.264  0.968  2.803
Ti  0.505  -2.711  -0.103
O  1.366  -1.518  -1.438
O  -2.410  0.443  1.214
O  1.101  1.446  -1.911
Ti  -0.949  1.501  1.472
Ti  1.339  -0.305  1.876
O  0.871  -4.251  -0.291
O  1.081  -2.021  1.691
O  -1.238  3.201  -2.683
O  -1.819  0.447  -1.661
O  0.047  0.110  0.361
   18
step   34
O  -1.397  -2.296  -0.358
O  -0.815  2.766  0.257
O  2.635  0.235  0.749
Ti  1.736  0.124  -0.923
Ti  -1.797  -0.566  -0.259
Ti  -0.731  2.113  -1.639
O  0.265  0.968  2.801
Ti  0.506  -2.711  -0.104
O  1.366  -1.513  -1.439
O  -2.408  0.443  1.214
O  1.104  1.443  -1.910
Ti  -0.950  1.502  1.472
Ti  1.339  -0.306  1.877
O  0.872  -4.250  -0.292
O  1.080  -2.018  1.690
O  -1.238  3.200  -2.684
O  -1.819  0.445  -1.661
O  0.048  0.111  0.363
   18
step   35
O  -1.401  -2.295  -0.357
O  -0.815  2.768  0.260
O  2.632  0.235  0.749
Ti  1.738  0.123  -0.924
Ti  -1.799  -0.567  -0.260
Ti  -0.731  2.112  -1.639
O  0.267  0.968  2.799
Ti  0.506  -2.711  -0.104
O  1.366  -1.508  -1.440
O  -2.405  0.443  1.214
O  1.107  1.440  -1.908
Ti  -0.952  1.503  1.473
Ti  1.340  -0.306  1.879
O  0.874  -4.250  -0.292
O  1.079  -2.016  1.689
O  -1.238  3.199  -2.686
O  -1.820  0.444  -1.662
O  0.049  0.112  0.364
   18
step   36
O  -1.404  -2.294  -0.355
O  -0.815  2.770  0.264
O  2.629  0.236  0.749
Ti  1.740  0.122  -0.926
Ti  -1.801  -0.568  -0.260
Ti  -0.731  2.111  -1.639
O  0.268  0.968  2.797
Ti  0.506  -2.710  -0.105
O  1.366  -1.504  -1.441
O  -2.402  0.443  1.214
O  1.109  1.437  -1.906
Ti  -0.953  1.503  1.474
Ti  1.340  -0.307  1.881
O  0.876  -4.251  -0.293
O  1.077  -2.013  1.689
O  -1.238  3.200  -2.689
O  -1.821  0.443  -1.663
O  0.050  0.114  0.365
   18
step   37
O  -1.407  -2.294  -0.353
O  -0.815  2.771  0.267
O  2.625  0.237  0.749
Ti  1.743  0.121  -0.927
Ti  -1.802  -0.569  -0.261
Ti  -0.731  2.110  -1.639
O  0.270  0.967  2.794
Ti  0.507  -2.710  -0.106
O  1.366  -1.499  -1.442
O  -2.399  0.442  1.214
O  1.112  1.434  -1.905
Ti  -0.955  1.504  1.475
Ti  1.341  -0.307  1.882
O  0.878  -4.253  -0.294
O  1.076  -2.011  1.687
O  -1.238  3.201  -2.692
O  -1.822  0.442  -1.664
O  0.051  0.115  0.365
   18
step   38
O  -1.410  -2.293  -0.351
O  -0.814  2.772  0.271
O  2.622  0.239  0.748
Ti  1.745  0.120  -0.928
Ti  -1.804  -0.570  -0.261
Ti  -0.731  2.109  -1.638
O  0.272  0.967  2.791
Ti  0.506  -2.708  -0.107
O  1.365  -1.495  -1.442
O  -2.396  0.441  1.214
O  1.115  1.432  -1.903
Ti  -0.956  1.504  1.476
Ti  1.341  -0.308  1.884
O  0.880  -4.255  -0.295
O  1.074  -2.009  1.686
O  -1.238  3.202  -2.695
O  -1.822  0.442  -1.666
O  0.051  0.116  0.366
   18
step   39
O  -1.412  -2.293  -0.349
O  -0.814  2.773  0.274
O  2.619  0.240  0.748
Ti  1.747  0.120  -0.929
Ti  -1.806  -0.571  -0.261
Ti  -0.731  2.107  -1.637
O  0.275  0.967  2.787
Ti  0.506  -2.707  -0.108
O  1.365  -1.491  -1.442
O  -2.393  0.441  1.214
O  1.117  1.430  -1.902
Ti  -0.957  1.505  1.478
Ti  1.341  -0.308  1.886
O  0.882  -4.259  -0.296
O  1.071  -2.007  1.685
O  -1.239  3.205  -2.699
O  -1.822  0.442  -1.668
O  0.052  0.118  0.366
   18
step   40
O  -1.413  -2.292  -0.347
O  -0.813  2.774  0.276
O  2.615  0.242  0.747
Ti  1.749  0.119  -0.929
Ti  -1.808  -0.572  -0.261
Ti  -0.730  2.106  -1.637
O  0.277  0.966  2.783
Ti  0.506  -2.706  -0.108
O  1.365  -1.488  -1.443
O  -2.389  0.440  1.214
O  1.119  1.428  -1.901
Ti  -0.958  1.505  1.479
Ti  1.341  -0.308  1.888
O  0.885  -4.263  -0.297
O  1.069  -2.006  1.683
O  -1.239  3.207  -2.703
O  -1.823  0.442  -1.671
O  0.053  0.119  0.366
   18
step   41
O  -1.414  -2.292  -0.345
O  -0.813  2.774  0.278
O  2.612  0.244  0.746
Ti  1.751  0.118  -0.930
Ti  -1.810  -0.573  -0.261
Ti  -0.730  2.104  -1.636
O  0.279  0.966  2.779
Ti  0.506  -2.704  -0.109
O  1.364  -1.485  -1.443
O  -2.386  0.439  1.215
O  1.120  1.427  -1.900
Ti  -0.959  1.505  1.481
Ti  1.340  -0.307  1.890
O  0.887  -4.267  -0.298
O  1.066  -2.005  1.681
O  -1.239  3.210  -2.708
O  -1.823  0.442  -1.674
O  0.053  0.120  0.366
   18
step   42
O  -1.415  -2.293  -0.343
O  -0.812  2.774  0.280
O  2.609  0.246  0.745
Ti  1.753  0.118  -0.931
Ti  -1.812  -0.574  -0.260
Ti  -0.729  2.102  -1.635
O  0.282  0.965  2.775
Ti  0.505  -2.702  -0.110
O  1.364  -1.483  -1.443
O  -2.382  0.437  1.215
O  1.121  1.426  -1.899
Ti  -0.960  1.505  1.482
Ti  1.340  -0.307  1.892
O  0.890  -4.271  -0.299
O  1.062  -2.004  1.680
O  -1.239  3.212  -2.712
O  -1.822  0.443  -1.677
O  0.053  0.121  0.365
   18
step   43
O  -1.415  -2.293  -0.340
O  -0.812  2.774  0.282
O  2.607  0.248  0.743
Ti  1.755  0.117  -0.931
Ti  -1.814  -0.575  -0.260
Ti  -0.728  2.101  -1.634
O  0.284  0.965  2.771
Ti  0.505  -2.700  -0.111
O  1.363  -1.481  -1.443
O  -2.379  0.436  1.215
O  1.122  1.425  -1.898
Ti  -0.961  1.505  1.484
Ti  1.340  -0.306  1.894
O  0.892  -4.275  -0.300
O  1.059  -2.004  1.677
O  -1.239  3.215  -2.716
O  -1.822  0.444  -1.681
O  0.053  0.122  0.365
   18
step   44
O  -1.415  -2.294  -0.338
O  -0.811  2.774  0.283
O  2.604  0.250  0.742
Ti  1.757  0.117  -0.931
Ti  -1.815  -0.576  -0.260
Ti  -0.727  2.099  -1.632
O  0.287  0.964  2.766
Ti  0.504  -2.699  -0.112
O  1.362  -1.480  -1.443
O  -2.376  0.434  1.216
O  1.123  1.425  -1.898
Ti  -0.962  1.505  1.486
Ti  1.339  -0.305  1.896
O  0.895  -4.279  -0.301
O  1.055  -2.005  1.675
O  -1.239  3.218  -2.720
O  -1.822  0.445  -1.684
O  0.053  0.124  0.364
   18
step   45
O  -1.414  -2.295  -0.335
O  -0.811  2.773  0.284
O  2.602  0.253  0.741
Ti  1.758  0.117  -0.931
Ti  -1.817  -0.577  -0.260
Ti  -0.727  2.097  -1.631
O  0.289  0.964  2.762
Ti  0.503  -2.697  -0.112
O  1.361  -1.479  -1.443
O  -2.373  0.432  1.217
O  1.123  1.426  -1.898
Ti  -0.962  1.505  1.488
Ti  1.339  -0.304  1.898
O  0.897  -4.283  -0.301
O  1.052  -2.006  1.673
O  -1.239  3.220  -2.723
O  -1.821  0.447  -1.688
O  0.053  0.125  0.362
   18
step   46
O  -1.413  -2.296  -0.333
O  -0.810  2.772  0.284
O  2.600  0.255  0.740
Ti  1.760  0.117  -0.931
Ti  -1.819  -0.578  -0.259
Ti  -0.726  2.096  -1.631
O  0.292  0.964  2.758
Ti  0.503  -2.696  -0.113
O  1.359  -1.479  -1.443
O  -2.371  0.430  1.217
O  1.122  1.427  -1.898
Ti  -0.963  1.505  1.489
Ti  1.338  -0.303  1.900
O  0.899  -4.286  -0.302
O  1.048  -2.007  1.671
O  -1.238  3.222  -2.726
O  -1.821  0.448  -1.691
O  0.052  0.125  0.361
   18
step   47
O  -1.411  -2.297  -0.330
O  -0.810  2.771  0.284
O  2.599  0.258  0.738
Ti  1.762  0.117  -0.931
Ti  -1.821  -0.578  -0.259
Ti  -0.725  2.094  -1.630
O  0.294  0.964  2.754
Ti  0.502  -2.694  -0.114
O  1.358  -1.480  -1.443
O  -2.368  0.428  1.218
O  1.122  1.428  -1.898
Ti  -0.963  1.505  1.491
Ti  1.337  -0.302  1.902
O  0.900  -4.288  -0.302
O  1.044  -2.008  1.669
O  -1.236  3.223  -2.728
O  -1.820  0.450  -1.694
O  0.051  0.126  0.359
   18
step   48
O  -1.409  -2.298  -0.328
O  -0.809  2.770  0.284
O  2.598  0.260  0.737
Ti  1.764  0.117  -0.931
Ti  -1.822  -0.579  -0.259
Ti  -0.724  2.093  -1.629
O  0.297  0.964  2.750
Ti  0.501  -2.693  -0.115
O  1.356  -1.481  -1.443
O  -2.366  0.426  1.219
O  1.120  1.430  -1.898
Ti  -0.963  1.505  1.493
Ti  1.337  -0.301  1.904
O  0.902  -4.289  -0.303
O  1.039  -2.010  1.666
O  -1.235  3.224  -2.730
O  -1.819  0.451  -1.697
O  0.050  0.127  0.357
   18
step   49
O  -1.407  -2.300  -0.325
O  -0.808  2.768  0.283
O  2.597  0.263  0.736
Ti  1.765  0.117  -0.931
Ti  -1.824  -0.579  -0.259
Ti  -0.723  2.092  -1.629
O  0.299  0.964  2.747
Ti  0.501  -2.692  -0.116
O  1.355  -1.482  -1.443
O  -2.365  0.423  1.221
O  1.119  1.431  -1.898
Ti  -0.963  1.505  1.495
Ti  1.336  -0.299  1.905
O  0.903  -4.290  -0.303
O  1.035  -2.012  1.664
O  -1.233  3.225  -2.731
O  -1.818  0.453  -1.700
O  0.049  0.127  0.356
   18
step   50
O  -1.404  -2.301  -0.323
O  -0.808  2.766  0.283
O  2.596  0.266  0.735
Ti  1.767  0.118  -0.931
Ti  -1.825  -0.580  -0.259
Ti  -0.723  2.091  -1.628
O  0.302  0.965  2.744
Ti  0.500  -2.692  -0.117
O  1.353  -1.485  -1.443
O  -2.364  0.421  1.222
O  1.117  1.434  -1.899
Ti  -0.963  1.505  1.497
Ti  1.335  -0.298  1.907
O  0.904  -4.289  -0.303
O  1.031  -2.014  1.662
O  -1.230  3.225  -2.732
O  -1.816  0.455  -1.703
O  0.047  0.128  0.353
   18
step   51
O  -1.401  -2.302  -0.320
O  -0.807  2.764  0.282
O  2.595  0.268  0.734
Ti  1.768  0.118  -0.931
Ti  -1.827  -0.580  -0.259
Ti  -0.722  2.090  -1.628
O  0.304  0.965  2.742
Ti  0.499  -2.692  -0.118
O  1.351  -1.487  -1.442
O  -2.363  0.418  1.223
O  1.115  1.436  -1.899
Ti  -0.962  1.505  1.499
Ti  1.334  -0.297  1.908
O  0.905  -4.288  -0.303
O  1.027  -2.015  1.660
O  -1.228  3.224  -2.732
O  -1.815  0.456  -1.705
O  0.046  0.128  0.351
   18
step   52
O  -1.398  -2.304  -0.318
O  -0.807  2.762  0.280
O  2.595  0.271  0.734
Ti  1.769  0.119  -0.930
Ti  -1.828  -0.580  -0.259
Ti  -0.721  2.089  -1.628
O  0.306  0.966  2.740
Ti  0.499  -2.692  -0.119
O  1.349  -1.490  -1.442
O  -2.362  0.415  1.225
O  1.113  1.439  -1.900
Ti  -0.962  1.505  1.500
Ti  1.334  -0.296  1.909
O  0.905  -4.286  -0.303
O  1.023  -2.017  1.658
O  -1.225  3.223  -2.731
O  -1.814  0.457  -1.707
O  0.044  0.128  0.349
   18
step   53
O  -1.394  -2.305  -0.316
O  -0.806  2.759  0.279
O  2.595  0.273  0.733
Ti  1.770  0.120  -0.930
Ti  -1.829  -0.580  -0.259
Ti  -0.721  2.089  -1.628
O  0.308  0.967  2.739
Ti  0.498  -2.692  -0.121
O  1.347  -1.493  -1.442
O  -2.362  0.413  1.227
O  1.111  1.442  -1.901
Ti  -0.961  1.505  1.502
Ti  1.333  -0.295  1.910
O  0.905  -4.283  -0.303
O  1.019  -2.019  1.656
O  -1.221  3.221  -2.730
O  -1.812  0.459  -1.709
O  0.042  0.129  0.347
   18
step   54
O  -1.390  -2.306  -0.313
O  -0.806  2.756  0.278
O  2.596  0.276  0.733
Ti  1.771  0.120  -0.930
Ti  -1.830  -0.580  -0.260
Ti  -0.720  2.089  -1.628
O  0.310  0.968  2.738
Ti  0.498  -2.693  -0.122
O  1.345  -1.497  -1.441
O  -2.363  0.410  1.229
O  1.109  1.444  -1.902
Ti  -0.960  1.505  1.504
Ti  1.332  -0.294  1.910
O  0.905  -4.280  -0.303
O  1.016  -2.020  1.655
O  -1.218  3.219  -2.728
O  -1.811  0.460  -1.710
O  0.040  0.129  0.345
   18
step   55
O  -1.387  -2.307  -0.311
O  -0.805  2.753  0.277
O  2.596  0.278  0.733
Ti  1.771  0.121  -0.930
Ti  -1.832  -0.580  -0.260
Ti  -0.720  2.089  -1.628
O  0.312  0.970  2.737
Ti  0.497  -2.693  -0.123
O  1.344  -1.500  -1.441
O  -2.363  0.407  1.231
O  1.106  1.447  -1.902
Ti  -0.960  1.505  1.505
Ti  1.331  -0.293  1.911
O  0.905  -4.276  -0.303
O  1.012  -2.021  1.654
O  -1.214  3.216  -2.725
O  -1.809  0.461  -1.711
O  0.038  0.129  0.343
   18
step   56
O  -1.383  -2.307  -0.309
O  -0.805  2.750  0.276
O  2.597  0.280  0.733
Ti  1.772  0.122  -0.930
Ti  -1.832  -0.580  -0.261
Ti  -0.719  2.089  -1.629
O  0.314  0.971  2.737
Ti  0.496  -2.694  -0.124
O  1.342  -1.504  -1.440
O  -2.364  0.404  1.234
O  1.104  1.450  -1.903
Ti  -0.959  1.504  1.507
Ti  1.331  -0.292  1.910
O  0.904  -4.272  -0.302
O  1.008  -2.022  1.653
O  -1.210  3.214  -2.723
O  -1.807  0.462  -1.712
O  0.036  0.128  0.341
   18
step   57
O  -1.379  -2.308  -0.307
O  -0.805  2.747  0.274
O  2.597  0.282  0.733
Ti  1.772  0.123  -0.930
Ti  -1.833  -0.580  -0.261
Ti  -0.719  2.089  -1.629
O  0.315  0.973  2.738
Ti  0.496  -2.695  -0.126
O  1.341  -1.507  -1.440
O  -2.365  0.402  1.236
O  1.102  1.452  -1.904
Ti  -0.957  1.504  1.508
Ti  1.330  -0.292  1.910
O  0.904  -4.267  -0.302
O  1.004  -2.022  1.652
O  -1.206  3.211  -2.719
O  -1.806  0.462  -1.712
O  0.034  0.128  0.339
   18
step   58
O  -1.376  -2.308  -0.305
O  -0.804  2.743  0.273
O  2.598  0.284  0.734
Ti  1.772  0.124  -0.931
Ti  -1.834  -0.580  -0.262
Ti  -0.718  2.089  -1.630
O  0.317  0.975  2.739
Ti  0.495  -2.696  -0.127
O  1.340  -1.511  -1.439
O  -2.366  0.399  1.238
O  1.099  1.455  -1.904
Ti  -0.956  1.504  1.509
Ti  1.329  -0.291  1.909
O  0.903  -4.262  -0.302
O  1.000  -2.021  1.651
O  -1.202  3.207  -2.716
O  -1.804  0.462  -1.712
O  0.032  0.128  0.337
   18
step   59
O  -1.373  -2.308  -0.303
O  -0.804  2.740  0.272
O  2.599  0.286  0.734
Ti  1.771  0.125  -0.931
Ti  -1.835  -0.580  -0.263
Ti  -0.718  2.089  -1.630
O  0.319  0.977  2.741
Ti  0.495  -2.698  -0.128
O  1.339  -1.514  -1.438
O  -2.367  0.397  1.241
O  1.097  1.457  -1.905
Ti  -0.955  1.504  1.510
Ti  1.329  -0.291  1.909
O  0.902  -4.258  -0.301
O  0.997  -2.021  1.651
O  -1.198  3.204  -2.713
O  -1.802  0.462  -1.712
O  0.030  0.128  0.336
   18
step   60
O  -1.370  -2.307  -0.301
O  -0.804  2.736  0.272
O  2.601  0.288  0.735
Ti  1.771  0.126  -0.931
Ti  -1.835  -0.579  -0.263
Ti  -0.718  2.090  -1.631
O  0.320  0.979  2.743
Ti  0.495  -2.699  -0.129
O  1.338  -1.517  -1.438
O  -2.369  0.394  1.244
O  1.096  1.459  -1.905
Ti  -0.954  1.503  1.511
Ti  1.328  -0.291  1.907
O  0.901  -4.254  -0.301
O  0.993  -2.019  1.651
O  -1.195  3.201  -2.709
O  -1.800  0.462  -1.711
O  0.028  0.127  0.335
   18
step   61
O  -1.367  -2.306  -0.299
O  -0.803  2.733  0.271
O  2.602  0.290  0.736
Ti  1.770  0.128  -0.932
Ti  -1.836  -0.579  -0.264
Ti  -0.717  2.090  -1.631
O  0.321  0.981  2.745
Ti  0.494  -2.700  -0.131
O  1.338  -1.520  -1.437
O  -2.370  0.392  1.246
O  1.094  1.461  -1.905
Ti  -0.953  1.503  1.512
Ti  1.328  -0.291  1.906
O  0.901  -4.250  -0.301
O  0.990  -2.018  1.652
O  -1.191  3.198  -2.705
O  -1.799  0.462  -1.710
O  0.027  0.127  0.333
   18
step   62
O  -1.364  -2.305  -0.297
O  -0.803  2.729  0.271
O  2.603  0.292  0.737
Ti  1.769  0.129  -0.933
Ti  -1.836  -0.579  -0.265
Ti  -0.717  2.090  -1.631
O  0.323  0.983  2.748
Ti  0.494  -2.701  -0.132
O  1.338  -1.522  -1.436
O  -2.372  0.389  1.249
O  1.093  1.463  -1.905
Ti  -0.951  1.502  1.512
Ti  1.327  -0.292  1.904
O  0.900  -4.247  -0.301
O  0.986  -2.016  1.653
O  -1.188  3.196  -2.702
O  -1.797  0.461  -1.708
O  0.026  0.127  0.333
   18
step   63
O  -1.363  -2.303  -0.296
O  -0.803  2.726  0.270
O  2.604  0.294  0.738
Ti  1.767  0.130  -0.934
Ti  -1.836  -0.578  -0.266
Ti  -0.716  2.090  -1.632
O  0.324  0.986  2.751
Ti  0.493  -2.702  -0.133
O  1.339  -1.524  -1.435
O  -2.373  0.387  1.251
O  1.092  1.464  -1.905
Ti  -0.950  1.502  1.513
Ti  1.327  -0.292  1.902
O  0.899  -4.244  -0.301
O  0.983  -2.013  1.654
O  -1.184  3.193  -2.699
O  -1.795  0.460  -1.706
O  0.024  0.127  0.332
   18
step   64
O  -1.361  -2.301  -0.294
O  -0.803  2.722  0.270
O  2.606  0.296  0.738
Ti  1.765  0.131  -0.934
Ti  -1.837  -0.578  -0.267
Ti  -0.716  2.090  -1.632
O  0.325  0.988  2.755
Ti  0.493  -2.702  -0.134
O  1.340  -1.526  -1.434
O  -2.375  0.384  1.254
O  1.091  1.465  -1.905
Ti  -0.949  1.501  1.513
Ti  1.326  -0.293  1.900
O  0.899  -4.243  -0.301
O  0.980  -2.010  1.655
O  -1.181  3.191  -2.696
O  -1.793  0.459  -1.705
O  0.023  0.126  0.332
   18
step   65