    9
step    0
O  -1.376  1.404  -0.699
Ti  -1.348  -0.636  -0.218
O  -2.575  -1.197  0.723
O  0.068  -1.665  -0.922
Ti  -0.009  1.729  0.349
O  1.243  1.452  -0.710
Ti  1.410  -0.629  -0.193
O  0.027  0.105  1.078
O  2.455  -1.490  0.713
    9
step    1
O  -1.373  1.402  -0.695
Ti  -1.350  -0.635  -0.217
O  -2.570  -1.194  0.722
O  0.072  -1.670  -0.922
Ti  -0.010  1.729  0.351
O  1.244  1.451  -0.712
Ti  1.411  -0.628  -0.193
O  0.024  0.105  1.074
O  2.452  -1.489  0.711
    9
step    2
O  -1.370  1.399  -0.691
Ti  -1.353  -0.634  -0.217
O  -2.565  -1.191  0.720
O  0.076  -1.674  -0.921
Ti  -0.011  1.729  0.352
O  1.246  1.450  -0.715
Ti  1.411  -0.627  -0.193
O  0.022  0.105  1.071
O  2.449  -1.488  0.710
    9
step    3
O  -1.367  1.396  -0.686
Ti  -1.355  -0.634  -0.217
O  -2.558  -1.189  0.718
O  0.079  -1.678  -0.921
Ti  -0.012  1.729  0.354
O  1.249  1.448  -0.717
Ti  1.412  -0.626  -0.193
O  0.019  0.104  1.068
O  2.445  -1.486  0.709
    9
step    4
O  -1.365  1.393  -0.681
Ti  -1.357  -0.633  -0.218
O  -2.551  -1.187  0.716
O  0.083  -1.681  -0.920
Ti  -0.014  1.730  0.355
O  1.253  1.447  -0.721
Ti  1.412  -0.626  -0.194
O  0.017  0.102  1.066
O  2.441  -1.485  0.708
    9
step    5
O  -1.362  1.389  -0.676
Ti  -1.360  -0.632  -0.218
O  -2.543  -1.185  0.714
O  0.086  -1.683  -0.920
Ti  -0.016  1.731  0.356
O  1.258  1.444  -0.724
Ti  1.412  -0.625  -0.194
O  0.015  0.100  1.064
O  2.436  -1.483  0.707
    9
step    6
O  -1.359  1.385  -0.670
Ti  -1.362  -0.630  -0.218
O  -2.536  -1.183  0.713
O  0.089  -1.686  -0.919
Ti  -0.018  1.732  0.358
O  1.264  1.441  -0.727
Ti  1.412  -0.624  -0.195
O  0.013  0.097  1.063
O  2.432  -1.482  0.707
    9
step    7
O  -1.357  1.380  -0.664
Ti  -1.363  -0.629  -0.219
O  -2.530  -1.182  0.712
O  0.092  -1.688  -0.918
Ti  -0.020  1.733  0.359
O  1.270  1.438  -0.731
Ti  1.411  -0.624  -0.195
O  0.011  0.095  1.062
O  2.429  -1.480  0.707
    9
step    8
O  -1.355  1.375  -0.659
Ti  -1.364  -0.628  -0.221
O  -2.525  -1.182  0.711
O  0.095  -1.689  -0.917
Ti  -0.021  1.735  0.360
O  1.276  1.435  -0.734
Ti  1.411  -0.623  -0.196
O  0.009  0.091  1.061
O  2.427  -1.479  0.708
    9
step    9
O  -1.354  1.370  -0.653
Ti  -1.365  -0.626  -0.222
O  -2.521  -1.182  0.711
O  0.097  -1.690  -0.916
Ti  -0.023  1.736  0.361
O  1.283  1.431  -0.736
Ti  1.410  -0.622  -0.197
O  0.007  0.088  1.061
O  2.425  -1.478  0.709
    9
step   10
O  -1.353  1.365  -0.647
Ti  -1.366  -0.624  -0.224
O  -2.519  -1.183  0.712
O  0.098  -1.690  -0.916
Ti  -0.025  1.738  0.361
O  1.290  1.427  -0.739
Ti  1.409  -0.622  -0.198
O  0.005  0.084  1.062
O  2.425  -1.477  0.710
    9
step   11
O  -1.353  1.359  -0.642
Ti  -1.366  -0.622  -0.226
O  -2.518  -1.184  0.713
O  0.099  -1.690  -0.915
Ti  -0.026  1.740  0.362
O  1.297  1.423  -0.741
Ti  1.407  -0.621  -0.200
O  0.003  0.080  1.063
O  2.426  -1.476  0.712
    9
step   12
O  -1.353  1.353  -0.637
Ti  -1.365  -0.619  -0.229
O  -2.519  -1.186  0.715
O  0.100  -1.689  -0.914
Ti  -0.027  1.742  0.363
O  1.304  1.418  -0.742
Ti  1.406  -0.621  -0.201
O  0.001  0.077  1.064
O  2.428  -1.475  0.714
    9
step   13
O  -1.353  1.348  -0.632
Ti  -1.365  -0.617  -0.231
O  -2.522  -1.188  0.718
O  0.099  -1.688  -0.913
Ti  -0.028  1.744  0.363
O  1.311  1.414  -0.742
Ti  1.404  -0.621  -0.203
O  -0.000  0.073  1.066
O  2.432  -1.474  0.717
    9
step   14
O  -1.354  1.342  -0.627
Ti  -1.364  -0.614  -0.234
O  -2.525  -1.190  0.720
O  0.099  -1.687  -0.912
Ti  -0.028  1.746  0.363
O  1.318  1.409  -0.742
Ti  1.402  -0.620  -0.204
O  -0.002  0.070  1.067
O  2.436  -1.474  0.720
    9
step   15
O  -1.356  1.336  -0.624
Ti  -1.363  -0.612  -0.237
O  -2.529  -1.193  0.723
O  0.097  -1.685  -0.911
Ti  -0.028  1.748  0.363
O  1.324  1.404  -0.741
Ti  1.400  -0.620  -0.206
O  -0.003  0.066  1.070
O  2.440  -1.473  0.723
    9
step   16
O  -1.358  1.330  -0.620
Ti  -1.361  -0.609  -0.240
O  -2.533  -1.196  0.726
O  0.095  -1.682  -0.910
Ti  -0.027  1.749  0.363
O  1.330  1.400  -0.739
Ti  1.398  -0.620  -0.208
O  -0.004  0.064  1.072
O  2.445  -1.471  0.725
    9
step   17
O  -1.361  1.325  -0.617
Ti  -1.360  -0.607  -0.243
O  -2.538  -1.199  0.729
O  0.092  -1.680  -0.909
Ti  -0.026  1.751  0.362
O  1.336  1.396  -0.737
Ti  1.395  -0.620  -0.209
O  -0.005  0.061  1.074
O  2.449  -1.470  0.728
    9
step   18
O  -1.364  1.320  -0.614
Ti  -1.359  -0.605  -0.246
O  -2.542  -1.201  0.732
O  0.089  -1.677  -0.909
Ti  -0.025  1.752  0.362
O  1.340  1.391  -0.734
Ti  1.393  -0.621  -0.211
O  -0.006  0.059  1.077
O  2.453  -1.468  0.731
    9
step   19
O  -1.367  1.315  -0.612
Ti  -1.357  -0.603  -0.248
O  -2.545  -1.204  0.734
O  0.086  -1.674  -0.908
Ti  -0.023  1.753  0.361
O  1.344  1.387  -0.730
Ti  1.392  -0.621  -0.212
O  -0.007  0.058  1.080
O  2.455  -1.466  0.733
    9
step   20
O  -1.371  1.310  -0.610
Ti  -1.356  -0.601  -0.250
O  -2.547  -1.206  0.736
O  0.081  -1.670  -0.907
Ti  -0.021  1.754  0.359
O  1.347  1.383  -0.726
Ti  1.390  -0.622  -0.213
O  -0.007  0.057  1.082
O  2.457  -1.463  0.735
    9
step   21
O  -1.375  1.306  -0.608
Ti  -1.355  -0.600  -0.252
O  -2.547  -1.208  0.738
O  0.076  -1.667  -0.906
Ti  -0.019  1.755  0.357
O  1.350  1.379  -0.720
Ti  1.388  -0.623  -0.214
O  -0.008  0.057  1.085
O  2.458  -1.460  0.737
    9
step   22
O  -1.379  1.303  -0.607
Ti  -1.354  -0.598  -0.254
O  -2.547  -1.210  0.739
O  0.071  -1.663  -0.906
Ti  -0.016  1.755  0.355
O  1.352  1.375  -0.715
Ti  1.387  -0.624  -0.214
O  -0.007  0.058  1.088
O  2.457  -1.456  0.738
    9
step   23
O  -1.383  1.300  -0.606
Ti  -1.353  -0.598  -0.255
O  -2.544  -1.211  0.739
O  0.066  -1.659  -0.905
Ti  -0.013  1.755  0.353
O  1.353  1.371  -0.709
Ti  1.386  -0.625  -0.214
O  -0.007  0.060  1.091
O  2.456  -1.452  0.739
    9
step   24
O  -1.387  1.298  -0.605
Ti  -1.352  -0.597  -0.256
O  -2.541  -1.212  0.739
O  0.060  -1.656  -0.905
Ti  -0.010  1.755  0.351
O  1.353  1.368  -0.702
Ti  1.385  -0.627  -0.215
O  -0.007  0.062  1.093
O  2.453  -1.448  0.739
    9
step   25
O  -1.391  1.296  -0.605
Ti  -1.352  -0.597  -0.257
O  -2.536  -1.213  0.738
O  0.053  -1.652  -0.904
Ti  -0.006  1.755  0.348
O  1.353  1.364  -0.695
Ti  1.384  -0.628  -0.214
O  -0.006  0.065  1.096
O  2.450  -1.443  0.740
    9
step   26
O  -1.395  1.295  -0.605
Ti  -1.351  -0.597  -0.257
O  -2.530  -1.214  0.737
O  0.047  -1.649  -0.904
Ti  -0.003  1.754  0.345
O  1.352  1.361  -0.688
Ti  1.383  -0.630  -0.214
O  -0.005  0.069  1.098
O  2.446  -1.439  0.740
    9
step   27
O  -1.399  1.295  -0.605
Ti  -1.351  -0.598  -0.257
O  -2.524  -1.214  0.735
O  0.040  -1.645  -0.904
Ti  0.000  1.753  0.341
O  1.351  1.358  -0.680
Ti  1.382  -0.631  -0.213
O  -0.003  0.073  1.100
O  2.442  -1.434  0.740
    9
step   28
O  -1.402  1.295  -0.605
Ti  -1.351  -0.598  -0.256
O  -2.518  -1.215  0.733
O  0.033  -1.642  -0.905
Ti  0.004  1.752  0.338
O  1.350  1.355  -0.672
Ti  1.382  -0.633  -0.213
O  -0.001  0.078  1.102
O  2.438  -1.428  0.740
    9
step   29
O  -1.406  1.296  -0.606
Ti  -1.352  -0.599  -0.255
O  -2.511  -1.216  0.731
O  0.026  -1.639  -0.905
Ti  0.007  1.750  0.334
O  1.348  1.353  -0.665
Ti  1.381  -0.635  -0.212
O  0.001  0.084  1.104
O  2.434  -1.423  0.739
    9
step   30
O  -1.409  1.297  -0.607
Ti  -1.353  -0.600  -0.254
O  -2.505  -1.216  0.729
O  0.019  -1.636  -0.907
Ti  0.010  1.749  0.331
O  1.347  1.350  -0.657
Ti  1.381  -0.636  -0.211
O  0.003  0.090  1.106
O  2.432  -1.418  0.739
    9
step   31
O  -1.412  1.299  -0.607
Ti  -1.353  -0.601  -0.253
O  -2.500  -1.217  0.726
O  0.012  -1.634  -0.908
Ti  0.013  1.747  0.327
O  1.346  1.347  -0.649
Ti  1.380  -0.638  -0.210
O  0.006  0.097  1.108
O  2.430  -1.413  0.739
    9
step   32
O  -1.414  1.302  -0.608
Ti  -1.354  -0.602  -0.252
O  -2.495  -1.219  0.724
O  0.006  -1.631  -0.910
Ti  0.015  1.745  0.324
O  1.345  1.344  -0.642
Ti  1.379  -0.639  -0.209
O  0.009  0.104  1.109
O  2.430  -1.409  0.739
    9
step   33
O  -1.416  1.306  -0.609
Ti  -1.355  -0.603  -0.250
O  -2.492  -1.220  0.721
O  -0.000  -1.630  -0.913
Ti  0.018  1.743  0.320
O  1.345  1.342  -0.636
Ti  1.378  -0.641  -0.208
O  0.012  0.111  1.110
O  2.431  -1.404  0.739
    9
step   34
O  -1.418  1.310  -0.610
Ti  -1.357  -0.603  -0.248
O  -2.490  -1.223  0.719
O  -0.006  -1.628  -0.916
Ti  0.020  1.741  0.317
O  1.345  1.339  -0.630
Ti  1.377  -0.642  -0.207
O  0.015  0.118  1.111
O  2.433  -1.399  0.740
    9
step   35
O  -1.419  1.314  -0.611
Ti  -1.358  -0.604  -0.246
O  -2.490  -1.225  0.717
O  -0.011  -1.627  -0.919
Ti  0.021  1.739  0.315
O  1.347  1.336  -0.625
Ti  1.376  -0.644  -0.206
O  0.019  0.126  1.112
O  2.437  -1.395  0.741
    9
step   36
O  -1.420  1.319  -0.612
Ti  -1.359  -0.604  -0.245
O  -2.491  -1.229  0.715
O  -0.016  -1.627  -0.923
Ti  0.022  1.738  0.312
O  1.349  1.333  -0.621
Ti  1.375  -0.645  -0.206
O  0.023  0.133  1.112
O  2.442  -1.391  0.742
    9
step   37
O  -1.421  1.325  -0.612
Ti  -1.361  -0.604  -0.243
O  -2.493  -1.233  0.714
O  -0.020  -1.627  -0.927
Ti  0.023  1.736  0.310
O  1.352  1.330  -0.618
Ti  1.373  -0.646  -0.205
O  0.027  0.139  1.113
O  2.449  -1.388  0.743
    9
step   38
O  -1.421  1.330  -0.613
Ti  -1.362  -0.604  -0.241
O  -2.496  -1.238  0.713
O  -0.023  -1.627  -0.932
Ti  0.023  1.734  0.308
O  1.356  1.327  -0.616
Ti  1.372  -0.647  -0.204
O  0.031  0.146  1.113
O  2.455  -1.384  0.744
    9
step   39
O  -1.421  1.336  -0.614
Ti  -1.364  -0.604  -0.239
O  -2.500  -1.243  0.712
O  -0.026  -1.627  -0.937
Ti  0.023  1.733  0.306
O  1.361  1.324  -0.615
Ti  1.370  -0.648  -0.203
O  0.035  0.151  1.114
O  2.463  -1.381  0.745
    9
step   40
O  -1.421  1.342  -0.615
Ti  -1.365  -0.604  -0.237
O  -2.504  -1.248  0.712
O  -0.029  -1.628  -0.942
Ti  0.023  1.732  0.304
O  1.367  1.321  -0.614
Ti  1.368  -0.649  -0.202
O  0.039  0.156  1.114
O  2.470  -1.378  0.747
    9
step   41
O  -1.420  1.348  -0.616
Ti  -1.367  -0.603  -0.235
O  -2.508  -1.255  0.711
O  -0.031  -1.629  -0.947
Ti  0.022  1.731  0.303
O  1.374  1.318  -0.615
Ti  1.367  -0.650  -0.201
O  0.042  0.161  1.114
O  2.478  -1.375  0.748
    9
step   42
O  -1.419  1.354  -0.617
Ti  -1.368  -0.602  -0.233
O  -2.512  -1.261  0.711
O  -0.032  -1.630  -0.952
Ti  0.021  1.730  0.302
O  1.381  1.315  -0.616
Ti  1.365  -0.650  -0.199
O  0.045  0.164  1.115
O  2.485  -1.372  0.749
    9
step   43
O  -1.418  1.360  -0.617
Ti  -1.370  -0.601  -0.231
O  -2.515  -1.267  0.711
O  -0.034  -1.631  -0.957
Ti  0.019  1.730  0.301
O  1.389  1.312  -0.618
Ti  1.363  -0.651  -0.198
O  0.048  0.167  1.116
O  2.492  -1.369  0.750
    9
step   44
O  -1.417  1.366  -0.618
Ti  -1.372  -0.600  -0.229
O  -2.517  -1.274  0.711
O  -0.035  -1.633  -0.963
Ti  0.018  1.730  0.300
O  1.397  1.309  -0.621
Ti  1.362  -0.652  -0.197
O  0.050  0.169  1.116
O  2.497  -1.367  0.751
    9
step   45
O  -1.415  1.371  -0.620
Ti  -1.374  -0.599  -0.226
O  -2.519  -1.281  0.710
O  -0.035  -1.634  -0.968
Ti  0.016  1.730  0.299
O  1.406  1.306  -0.624
Ti  1.361  -0.653  -0.195
O  0.053  0.171  1.117
O  2.501  -1.364  0.751
    9
step   46
O  -1.413  1.377  -0.621
Ti  -1.375  -0.598  -0.224
O  -2.519  -1.288  0.710
O  -0.036  -1.635  -0.972
Ti  0.014  1.731  0.298
O  1.414  1.303  -0.628
Ti  1.360  -0.653  -0.194
O  0.054  0.171  1.118
O  2.504  -1.361  0.751
    9
step   47
O  -1.411  1.382  -0.622
Ti  -1.377  -0.597  -0.222
O  -2.517  -1.295  0.710
O  -0.037  -1.636  -0.977
Ti  0.012  1.731  0.297
O  1.423  1.300  -0.632
Ti  1.359  -0.654  -0.192
O  0.055  0.171  1.119
O  2.506  -1.359  0.751
    9
step   48
O  -1.409  1.387  -0.624
Ti  -1.379  -0.596  -0.220
O  -2.515  -1.302  0.710
O  -0.037  -1.637  -0.981
Ti  0.011  1.732  0.296
O  1.431  1.298  -0.636
Ti  1.358  -0.655  -0.190
O  0.056  0.171  1.120
O  2.506  -1.356  0.751
    9
step   49
O  -1.407  1.391  -0.625
Ti  -1.381  -0.595  -0.217
O  -2.511  -1.309  0.709
O  -0.038  -1.638  -0.985
Ti  0.009  1.734  0.295
O  1.439  1.295  -0.641
Ti  1.357  -0.655  -0.188
O  0.056  0.169  1.121
O  2.504  -1.354  0.750
    9
step   50
O  -1.405  1.396  -0.627
Ti  -1.383  -0.594  -0.215
O  -2.506  -1.316  0.709
O  -0.038  -1.638  -0.989
Ti  0.008  1.735  0.295
O  1.447  1.293  -0.646
Ti  1.357  -0.656  -0.186
O  0.056  0.167  1.123
O  2.502  -1.352  0.750
    9
step   51
O  -1.402  1.400  -0.629
Ti  -1.385  -0.593  -0.213
O  -2.501  -1.324  0.709
O  -0.039  -1.638  -0.992
Ti  0.007  1.737  0.293
O  1.453  1.290  -0.651
Ti  1.356  -0.657  -0.184
O  0.055  0.165  1.124
O  2.498  -1.350  0.749
    9
step   52
O  -1.400  1.404  -0.631
Ti  -1.386  -0.592  -0.211
O  -2.494  -1.331  0.709
O  -0.040  -1.637  -0.995
Ti  0.007  1.738  0.292
O  1.459  1.288  -0.656
Ti  1.356  -0.657  -0.182
O  0.053  0.162  1.125
O  2.494  -1.348  0.748
    9
step   53
O  -1.397  1.408  -0.633
Ti  -1.388  -0.591  -0.209
O  -2.488  -1.339  0.709
O  -0.041  -1.637  -0.998
Ti  0.007  1.740  0.291
O  1.464  1.286  -0.661
Ti  1.355  -0.658  -0.180
O  0.051  0.159  1.126
O  2.489  -1.347  0.748
    9
step   54
O  -1.395  1.411  -0.636
Ti  -1.389  -0.590  -0.207
O  -2.482  -1.346  0.709
O  -0.042  -1.636  -1.000
Ti  0.007  1.742  0.290
O  1.468  1.284  -0.665
Ti  1.355  -0.658  -0.178
O  0.049  0.156  1.127
O  2.485  -1.346  0.747
    9
step   55
O  -1.392  1.414  -0.638
Ti  -1.391  -0.589  -0.205
O  -2.476  -1.354  0.710
O  -0.044  -1.634  -1.002
Ti  0.008  1.744  0.289
O  1.471  1.283  -0.669
Ti  1.354  -0.659  -0.176
O  0.046  0.152  1.128
O  2.481  -1.345  0.747
    9
step   56
O  -1.390  1.417  -0.641
Ti  -1.392  -0.588  -0.203
O  -2.471  -1.361  0.711
O  -0.046  -1.632  -1.003
Ti  0.009  1.746  0.287
O  1.472  1.281  -0.672
Ti  1.354  -0.659  -0.174
O  0.042  0.148  1.129
O  2.477  -1.345  0.747
    9
step   57
O  -1.387  1.420  -0.643
Ti  -1.392  -0.587  -0.202
O  -2.468  -1.368  0.712
O  -0.048  -1.630  -1.005
Ti  0.011  1.748  0.286
O  1.473  1.280  -0.675
Ti  1.353  -0.660  -0.173
O  0.039  0.145  1.129
O  2.475  -1.346  0.747
    9
step   58
O  -1.385  1.423  -0.646
Ti  -1.393  -0.586  -0.200
O  -2.465  -1.376  0.714
O  -0.051  -1.627  -1.005
Ti  0.014  1.750  0.284
O  1.473  1.279  -0.677
Ti  1.352  -0.660  -0.171
O  0.034  0.141  1.129
O  2.474  -1.347  0.748
    9
step   59
O  -1.382  1.425  -0.649
Ti  -1.394  -0.585  -0.199
O  -2.463  -1.383  0.715
O  -0.054  -1.624  -1.006
Ti  0.017  1.751  0.282
O  1.471  1.278  -0.679
Ti  1.352  -0.660  -0.170
O  0.030  0.137  1.129
O  2.474  -1.348  0.749
    9
step   60
O  -1.379  1.428  -0.652
Ti  -1.394  -0.584  -0.197
O  -2.462  -1.390  0.717
O  -0.057  -1.621  -1.006
Ti  0.020  1.753  0.281
O  1.469  1.278  -0.680
Ti  1.351  -0.660  -0.169
O  0.025  0.133  1.128
O  2.476  -1.350  0.750
    9
step   61
O  -1.377  1.430  -0.655
Ti  -1.394  -0.583  -0.196
O  -2.463  -1.397  0.719
O  -0.061  -1.617  -1.005
Ti  0.024  1.755  0.279
O  1.465  1.278  -0.681
Ti  1.349  -0.660  -0.168
O  0.019  0.130  1.127
O  2.478  -1.353  0.752
    9
step   62
O  -1.374  1.432  -0.658
Ti  -1.394  -0.582  -0.195
O  -2.464  -1.404  0.721
O  -0.064  -1.613  -1.005
Ti  0.028  1.756  0.277
O  1.460  1.277  -0.681
Ti  1.348  -0.660  -0.168
O  0.014  0.127  1.125
O  2.482  -1.356  0.753
    9
step   63
O  -1.371  1.434  -0.661
Ti  -1.394  -0.582  -0.193
O  -2.466  -1.411  0.723
O  -0.068  -1.608  -1.003
Ti  0.032  1.758  0.275
O  1.455  1.278  -0.681
Ti  1.347  -0.660  -0.167
O  0.008  0.124  1.123
O  2.486  -1.359  0.755
    9
step   64
O  -1.368  1.436  -0.664
Ti  -1.394  -0.581  -0.192
O  -2.469  -1.418  0.725
O  -0.072  -1.604  -1.002
Ti  0.037  1.759  0.273
O  1.449  1.278  -0.681
Ti  1.345  -0.660  -0.167
O  0.003  0.122  1.121
O  2.491  -1.363  0.757
    9
step   65
O  -1.365  1.437  -0.667
Ti  -1.394  -0.581  -0.191
O  -2.471  -1.424  0.727
O  -0.075  -1.598  -1.000
Ti  0.042  1.760  0.271
O  1.442  1.278  -0.680
Ti  1.344  -0.660  -0.166
O  -0.002  0.119  1.118
O  2.496  -1.366  0.759
    9
step   66
O  -1.361  1.438  -0.670
Ti  -1.394  -0.580  -0.189
O  -2.474  -1.430  0.728
O  -0.079  -1.593  -0.998
Ti  0.047  1.761  0.269
O  1.435  1.279  -0.678
Ti  1.343  -0.660  -0.166
O  -0.008  0.118  1.115
O  2.501  -1.370  0.760
    9
step   67
O  -1.358  1.439  -0.673
Ti  -1.395  -0.580  -0.187
O  -2.477  -1.436  0.729
O  -0.082  -1.587  -0.996
Ti  0.052  1.762  0.267
O  1.428  1.280  -0.677
Ti  1.342  -0.660  -0.165
O  -0.013  0.116  1.111
O  2.506  -1.374  0.762
    9
step   68
O  -1.354  1.440  -0.676
Ti  -1.395  -0.580  -0.185
O  -2.479  -1.441  0.730
O  -0.085  -1.581  -0.994
Ti  0.056  1.763  0.265
O  1.420  1.280  -0.675
Ti  1.341  -0.660  -0.165
O  -0.017  0.116  1.108
O  2.510  -1.378  0.763
    9
step   69
O  -1.350  1.441  -0.678
Ti  -1.396  -0.581  -0.183
O  -2.480  -1.446  0.731
O  -0.088  -1.574  -0.991
Ti  0.061  1.764  0.263
O  1.413  1.281  -0.674
Ti  1.340  -0.660  -0.164
O  -0.022  0.115  1.104
O  2.514  -1.382  0.763
    9
step   70
O  -1.346  1.441  -0.681
Ti  -1.397  -0.582  -0.181
O  -2.480  -1.450  0.731
O  -0.090  -1.568  -0.989
Ti  0.065  1.765  0.261
O  1.405  1.282  -0.673
Ti  1.339  -0.660  -0.164
O  -0.026  0.115  1.100
O  2.516  -1.385  0.763
    9
step   71
O  -1.342  1.441  -0.684
Ti  -1.398  -0.582  -0.179
O  -2.480  -1.453  0.731
O  -0.092  -1.561  -0.987
Ti  0.069  1.766  0.259
O  1.398  1.283  -0.672
Ti  1.339  -0.660  -0.163
O  -0.031  0.115  1.096
O  2.516  -1.388  0.763
    9
step   72
O  -1.337  1.440  -0.687
Ti  -1.399  -0.583  -0.176
O  -2.478  -1.457  0.731
O  -0.093  -1.555  -0.985
Ti  0.073  1.766  0.258
O  1.392  1.284  -0.671
Ti  1.339  -0.661  -0.162
O  -0.035  0.116  1.092
O  2.516  -1.391  0.762
    9
step   73
O  -1.333  1.440  -0.689
Ti  -1.401  -0.584  -0.174
O  -2.476  -1.460  0.730
O  -0.094  -1.548  -0.983
Ti  0.076  1.767  0.256
O  1.386  1.284  -0.671
Ti  1.339  -0.661  -0.161
O  -0.039  0.117  1.088
O  2.514  -1.394  0.760
    9
step   74
O  -1.328  1.439  -0.691
Ti  -1.402  -0.586  -0.171
O  -2.473  -1.463  0.729
O  -0.094  -1.542  -0.982
Ti  0.078  1.768  0.255
O  1.381  1.285  -0.672
Ti  1.339  -0.661  -0.160
O  -0.042  0.118  1.084
O  2.512  -1.396  0.758
    9
step   75
O  -1.323  1.438  -0.694
Ti  -1.404  -0.587  -0.168
O  -2.470  -1.466  0.728
O  -0.093  -1.537  -0.980
Ti  0.081  1.769  0.255
O  1.377  1.285  -0.673
Ti  1.339  -0.662  -0.159
O  -0.046  0.119  1.081
O  2.508  -1.398  0.756
    9
step   76
O  -1.318  1.436  -0.696
Ti  -1.406  -0.588  -0.165
O  -2.466  -1.468  0.726
O  -0.092  -1.531  -0.979
Ti  0.083  1.771  0.254
O  1.374  1.285  -0.675
Ti  1.340  -0.662  -0.158
O  -0.049  0.121  1.078
O  2.504  -1.400  0.753
    9
step   77
O  -1.313  1.435  -0.697
Ti  -1.409  -0.589  -0.162
O  -2.463  -1.471  0.725
O  -0.090  -1.526  -0.979
Ti  0.084  1.772  0.254
O  1.371  1.284  -0.678
Ti  1.341  -0.663  -0.157
O  -0.052  0.123  1.075
O  2.499  -1.401  0.750
    9
step   78
O  -1.309  1.433  -0.699
Ti  -1.411  -0.590  -0.159
O  -2.460  -1.474  0.723
O  -0.088  -1.521  -0.979
Ti  0.085  1.773  0.254
O  1.370  1.284  -0.681
Ti  1.342  -0.663  -0.156
O  -0.055  0.125  1.072
O  2.495  -1.403  0.746
    9
step   79
O  -1.305  1.432  -0.701
Ti  -1.413  -0.591  -0.156
O  -2.457  -1.476  0.721
O  -0.085  -1.517  -0.979
Ti  0.085  1.775  0.255
O  1.370  1.283  -0.685
Ti  1.343  -0.663  -0.155
O  -0.057  0.127  1.071
O  2.491  -1.404  0.743
    9
step   80
O  -1.301  1.430  -0.702
Ti  -1.416  -0.592  -0.154
O  -2.456  -1.479  0.719
O  -0.082  -1.513  -0.979
Ti  0.085  1.776  0.255
O  1.371  1.282  -0.689
Ti  1.344  -0.664  -0.154
O  -0.059  0.130  1.069
O  2.487  -1.406  0.739
    9
step   81
O  -1.297  1.428  -0.703
Ti  -1.418  -0.593  -0.151
O  -2.455  -1.482  0.717
O  -0.079  -1.509  -0.980
Ti  0.084  1.778  0.256
O  1.373  1.281  -0.694
Ti  1.344  -0.664  -0.153
O  -0.060  0.132  1.068
O  2.484  -1.407  0.736
    9
step   82
O  -1.293  1.427  -0.705
Ti  -1.420  -0.594  -0.149
O  -2.455  -1.486  0.716
O  -0.075  -1.506  -0.981
Ti  0.083  1.779  0.257
O  1.376  1.279  -0.699
Ti  1.345  -0.664  -0.152
O  -0.061  0.135  1.068
O  2.482  -1.409  0.733
    9
step   83
O  -1.290  1.425  -0.706
Ti  -1.422  -0.595  -0.147
O  -2.457  -1.489  0.715
O  -0.072  -1.503  -0.982
Ti  0.082  1.781  0.259
O  1.380  1.278  -0.704
Ti  1.346  -0.664  -0.151
O  -0.062  0.138  1.068
O  2.482  -1.411  0.730
    9
step   84
O  -1.288  1.423  -0.707
Ti  -1.424  -0.595  -0.145
O  -2.459  -1.493  0.713
O  -0.068  -1.500  -0.984
Ti  0.081  1.783  0.260
O  1.385  1.276  -0.710
Ti  1.347  -0.664  -0.151
O  -0.062  0.141  1.069
O  2.482  -1.413  0.727
    9
step   85
O  -1.285  1.421  -0.709
Ti  -1.426  -0.596  -0.144
O  -2.463  -1.496  0.713
O  -0.064  -1.498  -0.986
Ti  0.079  1.784  0.261
O  1.390  1.274  -0.716
Ti  1.348  -0.663  -0.150
O  -0.062  0.144  1.070
O  2.483  -1.416  0.724
    9
step   86
O  -1.283  1.420  -0.710
Ti  -1.428  -0.596  -0.142
O  -2.468  -1.500  0.712
O  -0.060  -1.496  -0.988
Ti  0.077  1.786  0.263
O  1.395  1.273  -0.721
Ti  1.348  -0.663  -0.150
O  -0.062  0.147  1.072
O  2.485  -1.419  0.722
    9
step   87
O  -1.281  1.418  -0.711
Ti  -1.430  -0.596  -0.141
O  -2.474  -1.504  0.711
O  -0.057  -1.494  -0.990
Ti  0.075  1.787  0.264
O  1.401  1.271  -0.727
Ti  1.349  -0.662  -0.149
O  -0.061  0.150  1.075
O  2.488  -1.422  0.720
    9
step   88
O  -1.280  1.417  -0.712
Ti  -1.431  -0.597  -0.140
O  -2.480  -1.508  0.711
O  -0.053  -1.492  -0.993
Ti  0.073  1.789  0.265
O  1.406  1.269  -0.732
Ti  1.350  -0.661  -0.149
O  -0.060  0.153  1.078
O  2.491  -1.425  0.718
    9
step   89
O  -1.279  1.415  -0.713
Ti  -1.432  -0.597  -0.139
O  -2.486  -1.512  0.711
O  -0.051  -1.490  -0.995
Ti  0.071  1.790  0.266
O  1.412  1.268  -0.737
Ti  1.350  -0.660  -0.148
O  -0.058  0.155  1.082
O  2.495  -1.428  0.716
    9
step   90
O  -1.278  1.413  -0.715
Ti  -1.433  -0.597  -0.138
O  -2.492  -1.516  0.710
O  -0.048  -1.489  -0.997
Ti  0.069  1.791  0.267
O  1.417  1.266  -0.742
Ti  1.351  -0.659  -0.148
O  -0.057  0.158  1.086
O  2.498  -1.432  0.714
    9
step   91
O  -1.278  1.412  -0.716
Ti  -1.434  -0.598  -0.137
O  -2.498  -1.519  0.710
O  -0.046  -1.488  -1.000
Ti  0.067  1.792  0.267
O  1.422  1.265  -0.746
Ti  1.351  -0.658  -0.147
O  -0.055  0.161  1.091
O  2.501  -1.435  0.713
    9
step   92
O  -1.278  1.410  -0.717
Ti  -1.435  -0.599  -0.137
O  -2.503  -1.523  0.710
O  -0.045  -1.487  -1.002
Ti  0.065  1.793  0.267
O  1.427  1.264  -0.749
Ti  1.352  -0.656  -0.147
O  -0.053  0.164  1.096
O  2.504  -1.439  0.712
    9
step   93
O  -1.278  1.409  -0.718
Ti  -1.436  -0.599  -0.136
O  -2.507  -1.525  0.709
O  -0.043  -1.486  -1.004
Ti  0.064  1.793  0.267
O  1.432  1.263  -0.752
Ti  1.353  -0.654  -0.146
O  -0.051  0.167  1.101
O  2.505  -1.442  0.711
    9
step   94
O  -1.278  1.407  -0.719
Ti  -1.436  -0.600  -0.136
O  -2.509  -1.528  0.708
O  -0.043  -1.486  -1.006
Ti  0.062  1.794  0.267
O  1.436  1.263  -0.755
Ti  1.354  -0.653  -0.146
O  -0.049  0.170  1.106
O  2.506  -1.446  0.709
    9
step   95
O  -1.279  1.405  -0.721
Ti  -1.437  -0.601  -0.135
O  -2.510  -1.529  0.708
O  -0.043  -1.485  -1.007
Ti  0.060  1.794  0.266
O  1.439  1.263  -0.756
Ti  1.354  -0.651  -0.145
O  -0.047  0.172  1.111
O  2.506  -1.449  0.708
    9
step   96
O  -1.280  1.404  -0.722
Ti  -1.437  -0.602  -0.135
O  -2.510  -1.531  0.706
O  -0.043  -1.485  -1.009
Ti  0.059  1.794  0.265
O  1.441  1.263  -0.758
Ti  1.355  -0.649  -0.145
O  -0.045  0.175  1.117
O  2.504  -1.452  0.707
    9
step   97
O  -1.281  1.402  -0.723
Ti  -1.437  -0.603  -0.134
O  -2.509  -1.532  0.705
O  -0.044  -1.485  -1.010
Ti  0.058  1.794  0.264
O  1.443  1.264  -0.758
Ti  1.356  -0.647  -0.144
O  -0.042  0.178  1.122
O  2.502  -1.456  0.706
    9
step   98
O  -1.283  1.400  -0.724
Ti  -1.437  -0.605  -0.134
O  -2.506  -1.532  0.704
O  -0.046  -1.485  -1.010
Ti  0.057  1.794  0.262
O  1.444  1.265  -0.757
Ti  1.358  -0.645  -0.143
O  -0.040  0.181  1.127
O  2.499  -1.459  0.704
    9
step   99
O  -1.285  1.398  -0.725
Ti  -1.437  -0.606  -0.133
O  -2.502  -1.533  0.702
O  -0.048  -1.485  -1.010
Ti  0.056  1.793  0.260
O  1.445  1.267  -0.756
Ti  1.359  -0.642  -0.142
O  -0.038  0.184  1.132
O  2.494  -1.462  0.703
    9
step  100
O  -1.287  1.397  -0.726
Ti  -1.437  -0.607  -0.133
O  -2.498  -1.532  0.701
O  -0.050  -1.485  -1.010
Ti  0.056  1.793  0.258
O  1.445  1.268  -0.754
Ti  1.360  -0.640  -0.141
O  -0.035  0.187  1.137
O  2.490  -1.466  0.702
    9
step  101
O  -1.289  1.395  -0.727
Ti  -1.436  -0.609  -0.133
O  -2.493  -1.532  0.699
O  -0.053  -1.485  -1.009
Ti  0.055  1.792  0.255
O  1.444  1.271  -0.752
Ti  1.361  -0.638  -0.140
O  -0.033  0.190  1.142
O  2.485  -1.469  0.700
    9
step  102
O  -1.292  1.393  -0.728
Ti  -1.436  -0.610  -0.132
O  -2.488  -1.531  0.697
O  -0.056  -1.485  -1.008
Ti  0.055  1.791  0.252
O  1.443  1.273  -0.749
Ti  1.362  -0.636  -0.139
O  -0.031  0.193  1.147
O  2.480  -1.473  0.699
    9
step  103
O  -1.294  1.391  -0.729
Ti  -1.435  -0.612  -0.132
O  -2.484  -1.530  0.695
O  -0.059  -1.485  -1.007
Ti  0.055  1.790  0.249
O  1.441  1.276  -0.745
Ti  1.362  -0.634  -0.139
O  -0.028  0.196  1.151
O  2.475  -1.477  0.698
    9
step  104
O  -1.297  1.389  -0.729
Ti  -1.433  -0.613  -0.132
O  -2.480  -1.529  0.694
O  -0.062  -1.485  -1.005
Ti  0.056  1.788  0.246
O  1.438  1.279  -0.741
Ti  1.363  -0.631  -0.138
O  -0.026  0.199  1.155
O  2.471  -1.480  0.697
    9
step  105
O  -1.300  1.388  -0.730
Ti  -1.432  -0.614  -0.132
O  -2.477  -1.528  0.692
O  -0.065  -1.485  -1.003
Ti  0.056  1.787  0.243
O  1.435  1.282  -0.736
Ti  1.364  -0.629  -0.137
O  -0.023  0.202  1.159
O  2.467  -1.484  0.696
    9
step  106
O  -1.303  1.386  -0.730
Ti  -1.430  -0.615  -0.132
O  -2.474  -1.527  0.691
O  -0.068  -1.485  -1.000
Ti  0.057  1.785  0.239
O  1.432  1.285  -0.732
Ti  1.364  -0.627  -0.136
O  -0.021  0.205  1.163
O  2.464  -1.488  0.695
    9
step  107
O  -1.307  1.384  -0.730
Ti  -1.428  -0.615  -0.132
O  -2.473  -1.526  0.690
O  -0.071  -1.485  -0.997
Ti  0.057  1.783  0.236
O  1.429  1.288  -0.727
Ti  1.364  -0.625  -0.136
O  -0.018  0.208  1.166
O  2.461  -1.492  0.694
    9
step  108
O  -1.310  1.383  -0.730
Ti  -1.426  -0.616  -0.133
O  -2.474  -1.526  0.689
O  -0.073  -1.485  -0.994
Ti  0.058  1.781  0.232
O  1.426  1.291  -0.721
Ti  1.364  -0.624  -0.135
O  -0.015  0.211  1.169
O  2.460  -1.496  0.693
    9
step  109
O  -1.314  1.381  -0.729
Ti  -1.424  -0.616  -0.133
O  -2.476  -1.525  0.688
O  -0.075  -1.485  -0.991
Ti  0.059  1.780  0.229
O  1.423  1.294  -0.716
Ti  1.364  -0.622  -0.135
O  -0.013  0.214  1.171
O  2.459  -1.500  0.692
    9
step  110
O  -1.318  1.380  -0.729
Ti  -1.422  -0.616  -0.133
O  -2.478  -1.524  0.687
O  -0.077  -1.486  -0.987
Ti  0.059  1.778  0.225
O  1.420  1.297  -0.710
Ti  1.364  -0.620  -0.134
O  -0.010  0.217  1.174
O  2.459  -1.504  0.691
    9
step  111
O  -1.322  1.378  -0.728
Ti  -1.419  -0.616  -0.134
O  -2.482  -1.524  0.687
O  -0.078  -1.486  -0.983
Ti  0.060  1.776  0.222
O  1.417  1.300  -0.705
Ti  1.363  -0.619  -0.134
O  -0.007  0.220  1.176
O  2.459  -1.508  0.690
    9
step  112
O  -1.326  1.377  -0.727
Ti  -1.417  -0.615  -0.134
O  -2.487  -1.523  0.687
O  -0.078  -1.487  -0.980
Ti  0.060  1.774  0.218
O  1.415  1.303  -0.699
Ti  1.362  -0.617  -0.133
O  -0.003  0.222  1.177
O  2.460  -1.512  0.689
    9
step  113
O  -1.330  1.376  -0.727
Ti  -1.414  -0.615  -0.134
O  -2.493  -1.522  0.686
O  -0.077  -1.488  -0.976
Ti  0.060  1.772  0.215
O  1.414  1.305  -0.694
Ti  1.362  -0.616  -0.133
O  0.000  0.225  1.178
O  2.462  -1.516  0.688
    9
step  114
O  -1.334  1.374  -0.725
Ti  -1.411  -0.614  -0.134
O  -2.499  -1.522  0.686
O  -0.076  -1.489  -0.972
Ti  0.060  1.771  0.212
O  1.413  1.308  -0.690
Ti  1.361  -0.615  -0.133
O  0.004  0.227  1.179
O  2.463  -1.519  0.687
    9
step  115
O  -1.339  1.373  -0.724
Ti  -1.409  -0.613  -0.134
O  -2.504  -1.521  0.685
O  -0.075  -1.490  -0.969
Ti  0.060  1.770  0.209
O  1.413  1.310  -0.686
Ti  1.360  -0.614  -0.132
O  0.008  0.229  1.179
O  2.464  -1.523  0.685
    9
step  116
O  -1.343  1.372  -0.723
Ti  -1.407  -0.612  -0.134
O  -2.510  -1.520  0.684
O  -0.072  -1.491  -0.965
Ti  0.059  1.768  0.207
O  1.413  1.311  -0.682
Ti  1.359  -0.614  -0.132
O  0.012  0.230  1.180
O  2.466  -1.526  0.683
    9
step  117
O  -1.347  1.370  -0.721
Ti  -1.404  -0.611  -0.134
O  -2.515  -1.519  0.683
O  -0.069  -1.493  -0.962
Ti  0.058  1.767  0.205
O  1.414  1.313  -0.679
Ti  1.359  -0.613  -0.131
O  0.016  0.232  1.179
O  2.466  -1.528  0.681
    9
step  118
O  -1.352  1.369  -0.720
Ti  -1.402  -0.610  -0.134
O  -2.520  -1.518  0.682
O  -0.066  -1.494  -0.959
Ti  0.056  1.767  0.203
O  1.417  1.314  -0.677
Ti  1.358  -0.613  -0.131
O  0.020  0.233  1.179
O  2.466  -1.531  0.678
    9
step  119
O  -1.356  1.367  -0.718
Ti  -1.401  -0.609  -0.133
O  -2.523  -1.516  0.680
O  -0.061  -1.496  -0.956
Ti  0.054  1.766  0.201
O  1.420  1.315  -0.675
Ti  1.357  -0.613  -0.130
O  0.024  0.234  1.178
O  2.465  -1.532  0.676
    9
step  120
O  -1.360  1.365  -0.716
Ti  -1.399  -0.608  -0.132
O  -2.526  -1.514  0.678
O  -0.057  -1.498  -0.954
Ti  0.052  1.766  0.200
O  1.423  1.316  -0.674
Ti  1.356  -0.613  -0.129
O  0.029  0.235  1.177
O  2.464  -1.534  0.673
    9
step  121
O  -1.364  1.363  -0.715
Ti  -1.398  -0.607  -0.131
O  -2.528  -1.512  0.676
O  -0.052  -1.500  -0.951
Ti  0.049  1.765  0.199
O  1.427  1.316  -0.674
Ti  1.356  -0.613  -0.129
O  0.033  0.235  1.176
O  2.462  -1.535  0.669
    9
step  122
O  -1.368  1.361  -0.713
Ti  -1.396  -0.606  -0.130
O  -2.529  -1.509  0.673
O  -0.046  -1.503  -0.949
Ti  0.046  1.766  0.199
O  1.432  1.317  -0.674
Ti  1.356  -0.614  -0.128
O  0.037  0.236  1.175
O  2.459  -1.535  0.665
    9
step  123
O  -1.372  1.359  -0.711
Ti  -1.395  -0.605  -0.129
O  -2.529  -1.506  0.670
O  -0.041  -1.505  -0.947
Ti  0.043  1.766  0.198
O  1.437  1.317  -0.675
Ti  1.355  -0.614  -0.127
O  0.040  0.236  1.173
O  2.455  -1.536  0.661
    9
step  124
O  -1.376  1.357  -0.709
Ti  -1.395  -0.604  -0.127
O  -2.529  -1.503  0.667
O  -0.035  -1.508  -0.945
Ti  0.040  1.766  0.198
O  1.443  1.317  -0.676