    9
step    0
O  -1.376  1.404  -0.699
Ti  -1.348  -0.636  -0.218
O  -2.575  -1.197  0.723
O  0.068  -1.665  -0.922
Ti  -0.009  1.729  0.349
O  1.243  1.452  -0.710
Ti  1.410  -0.629  -0.193
O  0.027  0.105  1.078
O  2.455  -1.490  0.713
    9
step    1
O  -1.373  1.402  -0.695
Ti  -1.350  -0.635  -0.217
O  -2.570  -1.194  0.722
O  0.072  -1.670  -0.922
Ti  -0.010  1.729  0.351
O  1.244  1.451  -0.712
Ti  1.411  -0.628  -0.193
O  0.024  0.105  1.074
O  2.452  -1.489  0.711
    9
step    2
O  -1.370  1.399  -0.691
Ti  -1.353  -0.634  -0.217
O  -2.565  -1.191  0.720
O  0.076  -1.674  -0.921
Ti  -0.011  1.729  0.352
O  1.246  1.450  -0.715
Ti  1.411  -0.627  -0.193
O  0.022  0.105  1.071
O  2.449  -1.488  0.710
    9
step    3
O  -1.367  1.396  -0.686
Ti  -1.355  -0.634  -0.217
O  -2.558  -1.189  0.718
O  0.079  -1.678  -0.921
Ti  -0.012  1.729  0.354
O  1.249  1.448  -0.717
Ti  1.412  -0.626  -0.193
O  0.019  0.104  1.068
O  2.445  -1.486  0.709
    9
step    4
O  -1.365  1.393  -0.681
Ti  -1.357  -0.633  -0.218
O  -2.551  -1.187  0.716
O  0.083  -1.681  -0.920
Ti  -0.014  1.730  0.355
O  1.253  1.447  -0.721
Ti  1.412  -0.626  -0.194
O  0.017  0.102  1.066
O  2.441  -1.485  0.708
    9
step    5
O  -1.362  1.389  -0.676
Ti  -1.360  -0.632  -0.218
O  -2.543  -1.185  0.714
O  0.086  -1.683  -0.920
Ti  -0.016  1.731  0.356
O  1.258  1.444  -0.724
Ti  1.412  -0.625  -0.194
O  0.015  0.100  1.064
O  2.436  -1.483  0.707
    9
step    6
O  -1.359  1.385  -0.670
Ti  -1.362  -0.630  -0.218
O  -2.536  -1.183  0.713
O  0.089  -1.686  -0.919
Ti  -0.018  1.732  0.358
O  1.264  1.441  -0.727
Ti  1.412  -0.624  -0.195
O  0.013  0.097  1.063
O  2.432  -1.482  0.707
    9
step    7
O  -1.357  1.380  -0.664
Ti  -1.363  -0.629  -0.219
O  -2.530  -1.182  0.712
O  0.092  -1.688  -0.918
Ti  -0.020  1.733  0.359
O  1.270  1.438  -0.731
Ti  1.411  -0.624  -0.195
O  0.011  0.095  1.062
O  2.429  -1.480  0.707
    9
step    8
O  -1.355  1.375  -0.658
Ti  -1.364  -0.628  -0.221
O  -2.525  -1.182  0.711
O  0.095  -1.689  -0.917
Ti  -0.022  1.735  0.360
O  1.276  1.435  -0.734
Ti  1.411  -0.623  -0.196
O  0.009  0.091  1.061
O  2.427  -1.479  0.708
    9
step    9
O  -1.354  1.370  -0.653
Ti  -1.365  -0.626  -0.222
O  -2.521  -1.182  0.711
O  0.097  -1.690  -0.916
Ti  -0.023  1.736  0.361
O  1.283  1.431  -0.736
Ti  1.410  -0.622  -0.197
O  0.007  0.088  1.061
O  2.425  -1.478  0.709
    9
step   10
O  -1.353  1.365  -0.647
Ti  -1.366  -0.624  -0.224
O  -2.519  -1.183  0.712
O  0.098  -1.690  -0.916
Ti  -0.025  1.738  0.361
O  1.290  1.427  -0.739
Ti  1.409  -0.622  -0.198
O  0.005  0.084  1.062
O  2.425  -1.477  0.710
    9
step   11
O  -1.352  1.359  -0.642
Ti  -1.366  -0.622  -0.226
O  -2.518  -1.184  0.713
O  0.099  -1.690  -0.915
Ti  -0.026  1.740  0.362
O  1.297  1.423  -0.741
Ti  1.407  -0.621  -0.200
O  0.003  0.080  1.063
O  2.426  -1.476  0.712
    9
step   12
O  -1.353  1.353  -0.636
Ti  -1.365  -0.619  -0.229
O  -2.519  -1.186  0.715
O  0.100  -1.689  -0.914
Ti  -0.027  1.742  0.363
O  1.304  1.418  -0.742
Ti  1.405  -0.621  -0.201
O  0.001  0.077  1.064
O  2.428  -1.475  0.714
    9
step   13
O  -1.353  1.347  -0.632
Ti  -1.365  -0.617  -0.231
O  -2.522  -1.188  0.718
O  0.099  -1.688  -0.913
Ti  -0.028  1.744  0.363
O  1.311  1.414  -0.742
Ti  1.404  -0.620  -0.203
O  -0.000  0.073  1.066
O  2.432  -1.474  0.717
    9
step   14
O  -1.354  1.341  -0.627
Ti  -1.364  -0.614  -0.234
O  -2.525  -1.190  0.720
O  0.099  -1.687  -0.912
Ti  -0.028  1.746  0.363
O  1.318  1.409  -0.742
Ti  1.402  -0.620  -0.204
O  -0.002  0.069  1.067
O  2.436  -1.473  0.720
    9
step   15
O  -1.356  1.336  -0.623
Ti  -1.363  -0.611  -0.237
O  -2.529  -1.193  0.723
O  0.097  -1.685  -0.911
Ti  -0.028  1.748  0.363
O  1.325  1.404  -0.741
Ti  1.400  -0.620  -0.206
O  -0.003  0.066  1.070
O  2.440  -1.473  0.723
    9
step   16
O  -1.358  1.330  -0.620
Ti  -1.361  -0.609  -0.240
O  -2.533  -1.196  0.726
O  0.095  -1.682  -0.910
Ti  -0.028  1.749  0.363
O  1.331  1.400  -0.740
Ti  1.397  -0.620  -0.208
O  -0.005  0.063  1.072
O  2.445  -1.471  0.726
    9
step   17
O  -1.361  1.324  -0.616
Ti  -1.360  -0.607  -0.243
O  -2.538  -1.199  0.729
O  0.093  -1.680  -0.909
Ti  -0.027  1.751  0.362
O  1.336  1.395  -0.737
Ti  1.395  -0.620  -0.209
O  -0.006  0.061  1.074
O  2.449  -1.470  0.728
    9
step   18
O  -1.364  1.319  -0.614
Ti  -1.359  -0.604  -0.246
O  -2.542  -1.201  0.732
O  0.089  -1.677  -0.909
Ti  -0.025  1.752  0.362
O  1.341  1.391  -0.734
Ti  1.393  -0.621  -0.211
O  -0.006  0.059  1.077
O  2.453  -1.468  0.731
    9
step   19
O  -1.367  1.314  -0.611
Ti  -1.357  -0.602  -0.248
O  -2.545  -1.204  0.735
O  0.086  -1.674  -0.908
Ti  -0.023  1.753  0.361
O  1.345  1.387  -0.730
Ti  1.391  -0.621  -0.212
O  -0.007  0.058  1.080
O  2.456  -1.466  0.733
    9
step   20
O  -1.371  1.310  -0.609
Ti  -1.356  -0.601  -0.251
O  -2.547  -1.206  0.737
O  0.081  -1.670  -0.907
Ti  -0.021  1.754  0.359
O  1.348  1.382  -0.726
Ti  1.390  -0.622  -0.213
O  -0.008  0.057  1.083
O  2.458  -1.463  0.735
    9
step   21
O  -1.375  1.306  -0.607
Ti  -1.355  -0.599  -0.253
O  -2.547  -1.208  0.738
O  0.076  -1.667  -0.906
Ti  -0.019  1.755  0.357
O  1.351  1.378  -0.720
Ti  1.388  -0.623  -0.214
O  -0.008  0.057  1.085
O  2.458  -1.460  0.737
    9
step   22
O  -1.379  1.302  -0.606
Ti  -1.353  -0.598  -0.254
O  -2.547  -1.210  0.739
O  0.071  -1.663  -0.905
Ti  -0.016  1.755  0.355
O  1.352  1.374  -0.715
Ti  1.387  -0.624  -0.214
O  -0.008  0.058  1.088
O  2.458  -1.456  0.738
    9
step   23
O  -1.383  1.299  -0.605
Ti  -1.353  -0.597  -0.256
O  -2.544  -1.211  0.739
O  0.065  -1.659  -0.905
Ti  -0.013  1.755  0.353
O  1.353  1.371  -0.708
Ti  1.385  -0.625  -0.215
O  -0.008  0.059  1.091
O  2.456  -1.452  0.739
    9
step   24
O  -1.387  1.297  -0.604
Ti  -1.352  -0.597  -0.257
O  -2.541  -1.212  0.739
O  0.059  -1.656  -0.904
Ti  -0.010  1.755  0.350
O  1.354  1.367  -0.702
Ti  1.384  -0.627  -0.215
O  -0.007  0.062  1.093
O  2.453  -1.448  0.740
    9
step   25
O  -1.391  1.295  -0.604
Ti  -1.351  -0.597  -0.257
O  -2.536  -1.213  0.738
O  0.053  -1.652  -0.904
Ti  -0.006  1.755  0.348
O  1.354  1.363  -0.694
Ti  1.383  -0.628  -0.215
O  -0.006  0.065  1.096
O  2.450  -1.443  0.740
    9
step   26
O  -1.395  1.294  -0.604
Ti  -1.351  -0.597  -0.258
O  -2.530  -1.214  0.737
O  0.046  -1.648  -0.904
Ti  -0.003  1.754  0.344
O  1.353  1.360  -0.687
Ti  1.383  -0.630  -0.214
O  -0.005  0.068  1.098
O  2.446  -1.438  0.740
    9
step   27
O  -1.399  1.293  -0.604
Ti  -1.351  -0.597  -0.257
O  -2.524  -1.215  0.736
O  0.039  -1.645  -0.904
Ti  0.001  1.753  0.341
O  1.352  1.357  -0.679
Ti  1.382  -0.631  -0.214
O  -0.004  0.073  1.101
O  2.442  -1.433  0.740
    9
step   28
O  -1.403  1.294  -0.604
Ti  -1.351  -0.598  -0.257
O  -2.517  -1.215  0.734
O  0.032  -1.641  -0.904
Ti  0.004  1.752  0.337
O  1.351  1.354  -0.671
Ti  1.381  -0.633  -0.213
O  -0.002  0.078  1.103
O  2.438  -1.427  0.740
    9
step   29
O  -1.407  1.295  -0.605
Ti  -1.352  -0.599  -0.256
O  -2.510  -1.216  0.731
O  0.025  -1.638  -0.905
Ti  0.007  1.751  0.334
O  1.350  1.351  -0.663
Ti  1.381  -0.635  -0.212
O  0.000  0.084  1.105
O  2.434  -1.422  0.740
    9
step   30
O  -1.410  1.296  -0.605
Ti  -1.352  -0.600  -0.255
O  -2.504  -1.217  0.729
O  0.018  -1.635  -0.906
Ti  0.011  1.749  0.330
O  1.348  1.348  -0.655
Ti  1.380  -0.636  -0.211
O  0.003  0.090  1.107
O  2.431  -1.417  0.740
    9
step   31
O  -1.413  1.298  -0.606
Ti  -1.353  -0.601  -0.254
O  -2.499  -1.218  0.726
O  0.011  -1.633  -0.908
Ti  0.014  1.747  0.326
O  1.347  1.345  -0.647
Ti  1.379  -0.638  -0.210
O  0.005  0.097  1.108
O  2.430  -1.411  0.740
    9
step   32
O  -1.416  1.301  -0.607
Ti  -1.354  -0.601  -0.252
O  -2.494  -1.219  0.724
O  0.004  -1.631  -0.910
Ti  0.016  1.745  0.323
O  1.346  1.342  -0.640
Ti  1.379  -0.640  -0.210
O  0.008  0.104  1.110
O  2.429  -1.406  0.740
    9
step   33
O  -1.418  1.305  -0.608
Ti  -1.355  -0.602  -0.251
O  -2.491  -1.221  0.721
O  -0.003  -1.629  -0.913
Ti  0.019  1.743  0.319
O  1.346  1.339  -0.633
Ti  1.378  -0.641  -0.209
O  0.012  0.112  1.111
O  2.431  -1.401  0.740
    9
step   34
O  -1.420  1.309  -0.608
Ti  -1.357  -0.603  -0.249
O  -2.489  -1.223  0.719
O  -0.008  -1.628  -0.916
Ti  0.021  1.741  0.316
O  1.347  1.336  -0.627
Ti  1.377  -0.643  -0.208
O  0.015  0.119  1.112
O  2.433  -1.397  0.741
    9
step   35
O  -1.421  1.314  -0.609
Ti  -1.358  -0.604  -0.247
O  -2.488  -1.226  0.717
O  -0.014  -1.627  -0.919
Ti  0.023  1.739  0.313
O  1.348  1.333  -0.622
Ti  1.375  -0.644  -0.207
O  0.019  0.127  1.113
O  2.437  -1.392  0.741
    9
step   36
O  -1.422  1.319  -0.610
Ti  -1.360  -0.604  -0.245
O  -2.489  -1.230  0.715
O  -0.019  -1.626  -0.923
Ti  0.024  1.737  0.311
O  1.350  1.330  -0.618
Ti  1.374  -0.646  -0.206
O  0.023  0.135  1.113
O  2.442  -1.388  0.742
    9
step   37
O  -1.423  1.325  -0.611
Ti  -1.361  -0.604  -0.243
O  -2.491  -1.234  0.713
O  -0.023  -1.626  -0.928
Ti  0.025  1.735  0.308
O  1.353  1.327  -0.615
Ti  1.372  -0.647  -0.205
O  0.027  0.142  1.114
O  2.449  -1.384  0.743
    9
step   38
O  -1.423  1.331  -0.612
Ti  -1.363  -0.604  -0.241
O  -2.494  -1.239  0.712
O  -0.027  -1.626  -0.932
Ti  0.025  1.734  0.306
O  1.358  1.324  -0.612
Ti  1.371  -0.648  -0.204
O  0.031  0.148  1.114
O  2.456  -1.380  0.745
    9
step   39
O  -1.423  1.337  -0.612
Ti  -1.364  -0.604  -0.239
O  -2.498  -1.244  0.711
O  -0.030  -1.626  -0.937
Ti  0.025  1.732  0.304
O  1.363  1.321  -0.611
Ti  1.369  -0.649  -0.203
O  0.036  0.154  1.115
O  2.464  -1.377  0.746
    9
step   40
O  -1.423  1.344  -0.613
Ti  -1.366  -0.603  -0.237
O  -2.503  -1.251  0.711
O  -0.033  -1.627  -0.943
Ti  0.024  1.731  0.302
O  1.369  1.317  -0.610
Ti  1.367  -0.650  -0.202
O  0.039  0.160  1.115
O  2.472  -1.373  0.748
    9
step   41
O  -1.422  1.350  -0.614
Ti  -1.367  -0.603  -0.235
O  -2.507  -1.257  0.710
O  -0.035  -1.628  -0.948
Ti  0.024  1.730  0.301
O  1.376  1.314  -0.611
Ti  1.365  -0.651  -0.200
O  0.043  0.164  1.116
O  2.480  -1.370  0.749
    9
step   42
O  -1.421  1.357  -0.615
Ti  -1.369  -0.602  -0.233
O  -2.511  -1.264  0.710
O  -0.037  -1.630  -0.953
Ti  0.022  1.730  0.299
O  1.384  1.311  -0.612
Ti  1.364  -0.651  -0.199
O  0.046  0.168  1.116
O  2.488  -1.367  0.750
    9
step   43
O  -1.420  1.363  -0.616
Ti  -1.371  -0.601  -0.231
O  -2.515  -1.271  0.710
O  -0.038  -1.631  -0.959
Ti  0.021  1.729  0.298
O  1.393  1.308  -0.614
Ti  1.362  -0.652  -0.198
O  0.049  0.171  1.117
O  2.495  -1.364  0.751
    9
step   44
O  -1.419  1.369  -0.617
Ti  -1.373  -0.600  -0.228
O  -2.517  -1.278  0.710
O  -0.040  -1.632  -0.964
Ti  0.019  1.729  0.297
O  1.402  1.304  -0.616
Ti  1.361  -0.653  -0.197
O  0.052  0.174  1.118
O  2.501  -1.361  0.752
    9
step   45
O  -1.417  1.375  -0.618
Ti  -1.375  -0.599  -0.226
O  -2.519  -1.285  0.710
O  -0.041  -1.634  -0.970
Ti  0.017  1.729  0.296
O  1.411  1.301  -0.619
Ti  1.359  -0.654  -0.195
O  0.054  0.176  1.119
O  2.505  -1.358  0.753
    9
step   46
O  -1.415  1.381  -0.619
Ti  -1.377  -0.598  -0.224
O  -2.519  -1.293  0.709
O  -0.042  -1.635  -0.975
Ti  0.015  1.730  0.295
O  1.420  1.298  -0.623
Ti  1.358  -0.655  -0.193
O  0.056  0.177  1.120
O  2.509  -1.355  0.753
    9
step   47
O  -1.413  1.386  -0.620
Ti  -1.379  -0.597  -0.221
O  -2.517  -1.300  0.709
O  -0.043  -1.636  -0.980
Ti  0.013  1.731  0.294
O  1.430  1.295  -0.627
Ti  1.357  -0.655  -0.191
O  0.058  0.177  1.121
O  2.510  -1.352  0.753
    9
step   48
O  -1.411  1.391  -0.622
Ti  -1.381  -0.596  -0.219
O  -2.514  -1.308  0.709
O  -0.043  -1.637  -0.985
Ti  0.012  1.732  0.293
O  1.439  1.292  -0.632
Ti  1.356  -0.656  -0.189
O  0.058  0.176  1.122
O  2.510  -1.350  0.752
    9
step   49
O  -1.409  1.396  -0.623
Ti  -1.383  -0.595  -0.217
O  -2.510  -1.316  0.708
O  -0.044  -1.638  -0.989
Ti  0.010  1.733  0.292
O  1.448  1.289  -0.637
Ti  1.356  -0.657  -0.187
O  0.059  0.175  1.123
O  2.508  -1.347  0.752
    9
step   50
O  -1.406  1.401  -0.625
Ti  -1.385  -0.594  -0.214
O  -2.505  -1.324  0.708
O  -0.045  -1.639  -0.993
Ti  0.009  1.735  0.291
O  1.456  1.286  -0.642
Ti  1.355  -0.658  -0.185
O  0.058  0.173  1.125
O  2.505  -1.344  0.751
    9
step   51
O  -1.404  1.406  -0.627
Ti  -1.387  -0.593  -0.212
O  -2.499  -1.332  0.708
O  -0.046  -1.639  -0.997
Ti  0.008  1.736  0.290
O  1.463  1.283  -0.647
Ti  1.355  -0.658  -0.183
O  0.058  0.171  1.126
O  2.501  -1.341  0.750
    9
step   52
O  -1.401  1.410  -0.629
Ti  -1.389  -0.592  -0.209
O  -2.492  -1.340  0.708
O  -0.048  -1.638  -1.000
Ti  0.008  1.738  0.289
O  1.470  1.281  -0.652
Ti  1.354  -0.659  -0.181
O  0.056  0.168  1.128
O  2.496  -1.339  0.749
    9
step   53
O  -1.398  1.414  -0.632
Ti  -1.391  -0.591  -0.207
O  -2.485  -1.348  0.708
O  -0.050  -1.638  -1.003
Ti  0.008  1.740  0.287
O  1.476  1.279  -0.657
Ti  1.354  -0.660  -0.178
O  0.054  0.165  1.129
O  2.491  -1.337  0.749
    9
step   54
O  -1.396  1.418  -0.634
Ti  -1.392  -0.589  -0.205
O  -2.478  -1.356  0.708
O  -0.051  -1.637  -1.006
Ti  0.008  1.742  0.286
O  1.480  1.276  -0.661
Ti  1.353  -0.661  -0.176
O  0.052  0.162  1.130
O  2.486  -1.335  0.748
    9
step   55
O  -1.393  1.422  -0.637
Ti  -1.394  -0.588  -0.203
O  -2.472  -1.364  0.709
O  -0.054  -1.635  -1.009
Ti  0.009  1.744  0.284
O  1.484  1.275  -0.665
Ti  1.353  -0.661  -0.174
O  0.049  0.158  1.131
O  2.482  -1.333  0.748
    9
step   56
O  -1.391  1.425  -0.639
Ti  -1.395  -0.587  -0.201
O  -2.467  -1.372  0.709
O  -0.056  -1.634  -1.011
Ti  0.011  1.746  0.283
O  1.486  1.273  -0.669
Ti  1.352  -0.662  -0.172
O  0.046  0.154  1.132
O  2.478  -1.332  0.748
    9
step   57
O  -1.388  1.429  -0.642
Ti  -1.396  -0.586  -0.200
O  -2.463  -1.380  0.710
O  -0.059  -1.631  -1.012
Ti  0.013  1.748  0.281
O  1.488  1.271  -0.672
Ti  1.351  -0.662  -0.171
O  0.042  0.150  1.133
O  2.476  -1.332  0.749
    9
step   58
O  -1.385  1.432  -0.645
Ti  -1.397  -0.585  -0.198
O  -2.459  -1.389  0.712
O  -0.063  -1.629  -1.013
Ti  0.016  1.750  0.280
O  1.488  1.270  -0.675
Ti  1.350  -0.663  -0.169
O  0.037  0.145  1.133
O  2.475  -1.332  0.750
    9
step   59
O  -1.383  1.435  -0.648
Ti  -1.397  -0.584  -0.196
O  -2.457  -1.397  0.713
O  -0.066  -1.626  -1.014
Ti  0.019  1.752  0.278
O  1.487  1.269  -0.677
Ti  1.349  -0.663  -0.168
O  0.032  0.141  1.133
O  2.476  -1.333  0.751
    9
step   60
O  -1.380  1.438  -0.651
Ti  -1.398  -0.583  -0.195
O  -2.457  -1.405  0.715
O  -0.070  -1.622  -1.014
Ti  0.023  1.754  0.276
O  1.485  1.268  -0.679
Ti  1.347  -0.663  -0.167
O  0.027  0.137  1.132
O  2.478  -1.334  0.753
    9
step   61
O  -1.377  1.440  -0.653
Ti  -1.398  -0.582  -0.193
O  -2.457  -1.413  0.717
O  -0.074  -1.618  -1.014
Ti  0.027  1.756  0.274
O  1.482  1.267  -0.680
Ti  1.346  -0.663  -0.166
O  0.021  0.133  1.131
O  2.481  -1.336  0.755
    9
step   62
O  -1.374  1.443  -0.656
Ti  -1.398  -0.581  -0.192
O  -2.458  -1.421  0.719
O  -0.078  -1.614  -1.013
Ti  0.031  1.757  0.273
O  1.478  1.267  -0.681
Ti  1.344  -0.663  -0.166
O  0.016  0.130  1.130
O  2.485  -1.339  0.757
    9
step   63
O  -1.371  1.445  -0.659
Ti  -1.399  -0.580  -0.191
O  -2.461  -1.429  0.721
O  -0.083  -1.609  -1.012
Ti  0.036  1.759  0.271
O  1.473  1.266  -0.681
Ti  1.342  -0.663  -0.166
O  0.010  0.126  1.128
O  2.491  -1.342  0.759
    9
step   64
O  -1.368  1.448  -0.662
Ti  -1.399  -0.579  -0.189
O  -2.463  -1.436  0.722
O  -0.087  -1.604  -1.011
Ti  0.042  1.760  0.269
O  1.467  1.266  -0.681
Ti  1.340  -0.664  -0.165
O  0.004  0.123  1.126
O  2.497  -1.345  0.762
    9
step   65
O  -1.364  1.450  -0.665
Ti  -1.399  -0.578  -0.188
O  -2.466  -1.443  0.724
O  -0.091  -1.599  -1.009
Ti  0.047  1.761  0.267
O  1.460  1.266  -0.680
Ti  1.338  -0.664  -0.165
O  -0.003  0.121  1.123
O  2.503  -1.348  0.764
    9
step   66
O  -1.360  1.452  -0.668
Ti  -1.400  -0.578  -0.186
O  -2.469  -1.450  0.725
O  -0.095  -1.593  -1.007
Ti  0.053  1.762  0.265
O  1.453  1.266  -0.679
Ti  1.337  -0.664  -0.165
O  -0.008  0.118  1.120
O  2.509  -1.351  0.766
    9
step   67
O  -1.356  1.453  -0.670
Ti  -1.400  -0.578  -0.184
O  -2.472  -1.456  0.727
O  -0.099  -1.586  -1.004
Ti  0.059  1.763  0.263
O  1.445  1.267  -0.678
Ti  1.335  -0.664  -0.165
O  -0.014  0.117  1.116
O  2.514  -1.354  0.768
    9
step   68
O  -1.352  1.454  -0.673
Ti  -1.401  -0.578  -0.182
O  -2.473  -1.461  0.727
O  -0.102  -1.579  -1.002
Ti  0.065  1.764  0.261
O  1.437  1.267  -0.677
Ti  1.333  -0.664  -0.164
O  -0.020  0.115  1.112
O  2.519  -1.357  0.769
    9
step   69
O  -1.348  1.456  -0.676
Ti  -1.402  -0.578  -0.180
O  -2.475  -1.466  0.728
O  -0.105  -1.572  -0.999
Ti  0.071  1.765  0.258
O  1.428  1.267  -0.675
Ti  1.332  -0.665  -0.164
O  -0.025  0.114  1.108
O  2.522  -1.359  0.770
    9
step   70
O  -1.343  1.456  -0.678
Ti  -1.403  -0.578  -0.178
O  -2.475  -1.471  0.728
O  -0.107  -1.565  -0.996
Ti  0.076  1.765  0.257
O  1.420  1.268  -0.674
Ti  1.331  -0.666  -0.163
O  -0.031  0.113  1.103
O  2.525  -1.361  0.770
    9
step   71
O  -1.338  1.457  -0.681
Ti  -1.404  -0.579  -0.175
O  -2.475  -1.475  0.728
O  -0.109  -1.558  -0.993
Ti  0.081  1.766  0.255
O  1.412  1.268  -0.673
Ti  1.330  -0.666  -0.163
O  -0.036  0.113  1.099
O  2.525  -1.363  0.770
    9
step   72
O  -1.333  1.457  -0.683
Ti  -1.406  -0.580  -0.173
O  -2.473  -1.479  0.727
O  -0.110  -1.551  -0.990
Ti  0.086  1.767  0.253
O  1.405  1.269  -0.673
Ti  1.329  -0.667  -0.162
O  -0.041  0.113  1.094
O  2.525  -1.365  0.769
    9
step   73
O  -1.328  1.457  -0.685
Ti  -1.408  -0.581  -0.170
O  -2.471  -1.483  0.726
O  -0.111  -1.544  -0.988
Ti  0.091  1.767  0.252
O  1.398  1.269  -0.673
Ti  1.329  -0.668  -0.161
O  -0.046  0.114  1.090
O  2.523  -1.366  0.767
    9
step   74
O  -1.322  1.457  -0.687
Ti  -1.410  -0.582  -0.167
O  -2.468  -1.486  0.725
O  -0.111  -1.537  -0.985
Ti  0.095  1.768  0.251
O  1.392  1.269  -0.673
Ti  1.328  -0.669  -0.160
O  -0.051  0.115  1.085
O  2.520  -1.367  0.764
    9
step   75
O  -1.316  1.457  -0.689
Ti  -1.413  -0.583  -0.164
O  -2.464  -1.489  0.723
O  -0.110  -1.531  -0.983
Ti  0.099  1.769  0.250
O  1.386  1.269  -0.674
Ti  1.328  -0.669  -0.159
O  -0.055  0.116  1.081
O  2.516  -1.367  0.761
    9
step   76
O  -1.311  1.456  -0.691
Ti  -1.415  -0.584  -0.161
O  -2.461  -1.492  0.721
O  -0.109  -1.525  -0.981
Ti  0.102  1.770  0.249
O  1.382  1.268  -0.676
Ti  1.329  -0.670  -0.158
O  -0.059  0.118  1.077
O  2.512  -1.367  0.758
    9
step   77
O  -1.305  1.455  -0.693
Ti  -1.418  -0.585  -0.158
O  -2.457  -1.495  0.719
O  -0.107  -1.519  -0.980
Ti  0.104  1.771  0.249
O  1.379  1.268  -0.679
Ti  1.329  -0.671  -0.157
O  -0.063  0.120  1.073
O  2.507  -1.368  0.754
    9
step   78
O  -1.299  1.453  -0.695
Ti  -1.421  -0.586  -0.155
O  -2.453  -1.498  0.717
O  -0.104  -1.513  -0.979
Ti  0.106  1.772  0.250
O  1.377  1.267  -0.682
Ti  1.330  -0.672  -0.155
O  -0.067  0.122  1.070
O  2.502  -1.368  0.750
    9
step   79
O  -1.294  1.452  -0.697
Ti  -1.423  -0.587  -0.152
O  -2.450  -1.500  0.715
O  -0.102  -1.508  -0.978
Ti  0.107  1.773  0.250
O  1.376  1.266  -0.686
Ti  1.330  -0.673  -0.154
O  -0.069  0.124  1.068
O  2.498  -1.368  0.746
    9
step   80
O  -1.289  1.450  -0.698
Ti  -1.426  -0.588  -0.150
O  -2.448  -1.503  0.712
O  -0.098  -1.504  -0.978
Ti  0.108  1.774  0.252
O  1.377  1.264  -0.690
Ti  1.331  -0.673  -0.153
O  -0.072  0.126  1.065
O  2.494  -1.368  0.742
    9
step   81
O  -1.284  1.448  -0.700
Ti  -1.429  -0.589  -0.147
O  -2.447  -1.506  0.710
O  -0.095  -1.500  -0.978
Ti  0.108  1.776  0.253
O  1.379  1.262  -0.695
Ti  1.331  -0.673  -0.152
O  -0.074  0.128  1.064
O  2.491  -1.368  0.738
    9
step   82
O  -1.279  1.447  -0.701
Ti  -1.432  -0.590  -0.145
O  -2.447  -1.509  0.708
O  -0.091  -1.496  -0.979
Ti  0.107  1.777  0.255
O  1.382  1.260  -0.701
Ti  1.332  -0.674  -0.151
O  -0.075  0.131  1.063
O  2.489  -1.369  0.734
    9
step   83
O  -1.275  1.445  -0.703
Ti  -1.435  -0.591  -0.143
O  -2.448  -1.512  0.707
O  -0.087  -1.492  -0.980
Ti  0.106  1.779  0.256
O  1.386  1.258  -0.707
Ti  1.332  -0.674  -0.150
O  -0.076  0.134  1.063
O  2.488  -1.370  0.730
    9
step   84
O  -1.271  1.443  -0.704
Ti  -1.437  -0.592  -0.141
O  -2.451  -1.516  0.705
O  -0.083  -1.489  -0.982
Ti  0.105  1.780  0.259
O  1.390  1.256  -0.713
Ti  1.333  -0.673  -0.150
O  -0.076  0.136  1.063
O  2.489  -1.372  0.727
    9
step   85
O  -1.267  1.441  -0.706
Ti  -1.440  -0.592  -0.139
O  -2.455  -1.520  0.704
O  -0.079  -1.487  -0.984
Ti  0.103  1.782  0.261
O  1.396  1.254  -0.720
Ti  1.333  -0.673  -0.149
O  -0.075  0.139  1.064
O  2.491  -1.374  0.724
    9
step   86
O  -1.264  1.439  -0.707
Ti  -1.442  -0.592  -0.138
O  -2.460  -1.524  0.703
O  -0.075  -1.484  -0.986
Ti  0.101  1.783  0.263
O  1.401  1.251  -0.726
Ti  1.333  -0.672  -0.148
O  -0.075  0.142  1.066
O  2.494  -1.376  0.722
    9
step   87
O  -1.261  1.437  -0.709
Ti  -1.444  -0.593  -0.137
O  -2.465  -1.528  0.702
O  -0.071  -1.483  -0.989
Ti  0.099  1.785  0.265
O  1.408  1.249  -0.733
Ti  1.334  -0.671  -0.148
O  -0.073  0.145  1.068
O  2.497  -1.379  0.720
    9
step   88
O  -1.258  1.435  -0.710
Ti  -1.446  -0.593  -0.136
O  -2.472  -1.532  0.702
O  -0.068  -1.482  -0.992
Ti  0.097  1.786  0.267
O  1.414  1.247  -0.739
Ti  1.334  -0.669  -0.147
O  -0.072  0.148  1.071
O  2.502  -1.382  0.718
    9
step   89
O  -1.256  1.433  -0.712
Ti  -1.447  -0.593  -0.135
O  -2.479  -1.536  0.701
O  -0.066  -1.481  -0.995
Ti  0.094  1.787  0.269
O  1.420  1.245  -0.746
Ti  1.334  -0.667  -0.147
O  -0.070  0.151  1.074
O  2.507  -1.386  0.717
    9
step   90
O  -1.254  1.431  -0.713
Ti  -1.449  -0.594  -0.135
O  -2.485  -1.541  0.701
O  -0.064  -1.480  -0.999
Ti  0.092  1.788  0.271
O  1.426  1.243  -0.751
Ti  1.334  -0.665  -0.147
O  -0.067  0.154  1.078
O  2.512  -1.389  0.716
    9
step   91
O  -1.253  1.429  -0.715
Ti  -1.450  -0.594  -0.134
O  -2.492  -1.545  0.701
O  -0.062  -1.480  -1.002
Ti  0.090  1.789  0.272
O  1.432  1.242  -0.756
Ti  1.335  -0.663  -0.146
O  -0.065  0.157  1.083
O  2.516  -1.393  0.715
    9
step   92
O  -1.251  1.427  -0.716
Ti  -1.451  -0.595  -0.134
O  -2.497  -1.549  0.700
O  -0.061  -1.481  -1.005
Ti  0.087  1.790  0.273
O  1.437  1.241  -0.761
Ti  1.335  -0.661  -0.146
O  -0.062  0.160  1.088
O  2.520  -1.397  0.714
    9
step   93
O  -1.250  1.425  -0.718
Ti  -1.452  -0.596  -0.134
O  -2.501  -1.552  0.700
O  -0.061  -1.481  -1.009
Ti  0.085  1.791  0.274
O  1.442  1.240  -0.765
Ti  1.336  -0.658  -0.145
O  -0.059  0.163  1.094
O  2.522  -1.401  0.713
    9
step   94
O  -1.250  1.423  -0.719
Ti  -1.453  -0.596  -0.133
O  -2.504  -1.555  0.699
O  -0.061  -1.482  -1.012
Ti  0.083  1.792  0.274
O  1.446  1.239  -0.768
Ti  1.337  -0.655  -0.145
O  -0.055  0.166  1.099
O  2.524  -1.405  0.713
    9
step   95
O  -1.250  1.421  -0.721
Ti  -1.453  -0.597  -0.133
O  -2.506  -1.558  0.699
O  -0.062  -1.484  -1.014
Ti  0.081  1.792  0.274
O  1.450  1.239  -0.770
Ti  1.338  -0.653  -0.144
O  -0.052  0.169  1.105
O  2.524  -1.409  0.712
    9
step   96
O  -1.250  1.419  -0.722
Ti  -1.454  -0.598  -0.133
O  -2.506  -1.561  0.698
O  -0.064  -1.485  -1.017
Ti  0.079  1.793  0.273
O  1.453  1.240  -0.771
Ti  1.339  -0.650  -0.143
O  -0.049  0.172  1.111
O  2.522  -1.413  0.711
    9
step   97
O  -1.250  1.416  -0.724
Ti  -1.454  -0.600  -0.133
O  -2.504  -1.563  0.697
O  -0.066  -1.486  -1.018
Ti  0.078  1.793  0.272
O  1.455  1.240  -0.771
Ti  1.340  -0.647  -0.143
O  -0.045  0.175  1.117
O  2.519  -1.417  0.710
    9
step   98
O  -1.251  1.414  -0.725
Ti  -1.454  -0.601  -0.133
O  -2.502  -1.565  0.696
O  -0.069  -1.488  -1.020
Ti  0.076  1.793  0.270
O  1.457  1.241  -0.771
Ti  1.341  -0.644  -0.142
O  -0.042  0.179  1.123
O  2.514  -1.421  0.709
    9
step   99
O  -1.252  1.412  -0.727
Ti  -1.454  -0.603  -0.133
O  -2.498  -1.567  0.695
O  -0.072  -1.489  -1.021
Ti  0.075  1.792  0.269
O  1.457  1.243  -0.769
Ti  1.343  -0.641  -0.141
O  -0.039  0.183  1.129
O  2.508  -1.424  0.707
    9
step  100
O  -1.253  1.410  -0.728
Ti  -1.453  -0.605  -0.133
O  -2.493  -1.568  0.694
O  -0.075  -1.490  -1.021
Ti  0.075  1.792  0.266
O  1.457  1.245  -0.767
Ti  1.344  -0.638  -0.140
O  -0.035  0.186  1.135
O  2.501  -1.428  0.706
    9
step  101
O  -1.255  1.408  -0.730
Ti  -1.452  -0.606  -0.133
O  -2.488  -1.569  0.693
O  -0.079  -1.492  -1.021
Ti  0.074  1.791  0.264
O  1.457  1.247  -0.763
Ti  1.346  -0.635  -0.139
O  -0.032  0.190  1.141
O  2.493  -1.431  0.704
    9
step  102
O  -1.257  1.406  -0.731
Ti  -1.452  -0.608  -0.133
O  -2.482  -1.569  0.692
O  -0.082  -1.493  -1.020
Ti  0.074  1.791  0.261
O  1.455  1.250  -0.759
Ti  1.347  -0.632  -0.138
O  -0.028  0.194  1.147
O  2.486  -1.434  0.703
    9
step  103
O  -1.259  1.404  -0.732
Ti  -1.450  -0.610  -0.133
O  -2.477  -1.569  0.691
O  -0.086  -1.494  -1.018
Ti  0.074  1.790  0.258
O  1.453  1.252  -0.754
Ti  1.348  -0.629  -0.138
O  -0.025  0.198  1.152
O  2.478  -1.438  0.701
    9
step  104
O  -1.261  1.402  -0.733
Ti  -1.449  -0.612  -0.134
O  -2.473  -1.569  0.690
O  -0.090  -1.495  -1.016
Ti  0.074  1.788  0.254
O  1.451  1.256  -0.748
Ti  1.349  -0.627  -0.137
O  -0.021  0.202  1.158
O  2.472  -1.441  0.700
    9
step  105
O  -1.264  1.400  -0.734
Ti  -1.448  -0.613  -0.134
O  -2.470  -1.569  0.690
O  -0.094  -1.495  -1.013
Ti  0.075  1.787  0.251
O  1.448  1.259  -0.742
Ti  1.350  -0.624  -0.137
O  -0.018  0.205  1.163
O  2.466  -1.445  0.698
    9
step  106
O  -1.267  1.398  -0.735
Ti  -1.446  -0.615  -0.134
O  -2.468  -1.569  0.689
O  -0.098  -1.496  -1.010
Ti  0.075  1.786  0.247
O  1.445  1.263  -0.736
Ti  1.351  -0.621  -0.137
O  -0.014  0.209  1.167
O  2.461  -1.449  0.697
    9
step  107
O  -1.270  1.396  -0.736
Ti  -1.444  -0.616  -0.135
O  -2.467  -1.568  0.688
O  -0.101  -1.496  -1.007
Ti  0.076  1.784  0.243
O  1.442  1.267  -0.729
Ti  1.351  -0.619  -0.136
O  -0.011  0.213  1.172
O  2.458  -1.454  0.696
    9
step  108
O  -1.273  1.394  -0.736
Ti  -1.442  -0.618  -0.135
O  -2.468  -1.567  0.688
O  -0.104  -1.496  -1.003
Ti  0.077  1.783  0.239
O  1.439  1.271  -0.722
Ti  1.351  -0.617  -0.136
O  -0.007  0.216  1.176
O  2.456  -1.458  0.695
    9
step  109
O  -1.277  1.392  -0.737
Ti  -1.440  -0.619  -0.136
O  -2.470  -1.567  0.687
O  -0.107  -1.496  -0.999
Ti  0.078  1.781  0.235
O  1.436  1.275  -0.715
Ti  1.351  -0.615  -0.137
O  -0.003  0.220  1.180
O  2.455  -1.463  0.694
    9
step  110
O  -1.281  1.390  -0.737
Ti  -1.437  -0.620  -0.136
O  -2.473  -1.566  0.687
O  -0.109  -1.496  -0.995
Ti  0.078  1.780  0.232
O  1.433  1.279  -0.708
Ti  1.350  -0.612  -0.137
O  0.002  0.223  1.184
O  2.455  -1.468  0.694
    9
step  111
O  -1.285  1.388  -0.737
Ti  -1.435  -0.620  -0.137
O  -2.478  -1.565  0.687
O  -0.111  -1.496  -0.991
Ti  0.079  1.778  0.228
O  1.430  1.284  -0.701
Ti  1.350  -0.611  -0.137
O  0.006  0.226  1.187
O  2.456  -1.474  0.693
    9
step  112
O  -1.290  1.386  -0.738
Ti  -1.432  -0.621  -0.137
O  -2.483  -1.565  0.687
O  -0.112  -1.496  -0.986
Ti  0.079  1.777  0.224
O  1.428  1.288  -0.694
Ti  1.349  -0.609  -0.137
O  0.011  0.229  1.189
O  2.458  -1.479  0.692
    9
step  113
O  -1.295  1.384  -0.737
Ti  -1.429  -0.621  -0.137
O  -2.490  -1.563  0.686
O  -0.112  -1.496  -0.981
Ti  0.079  1.776  0.221
O  1.427  1.292  -0.688
Ti  1.348  -0.607  -0.138
O  0.016  0.232  1.192
O  2.461  -1.484  0.692
    9
step  114
O  -1.300  1.382  -0.737
Ti  -1.427  -0.622  -0.138
O  -2.497  -1.562  0.686
O  -0.112  -1.496  -0.977
Ti  0.079  1.775  0.218
O  1.426  1.296  -0.682
Ti  1.347  -0.606  -0.138
O  0.020  0.234  1.193
O  2.464  -1.489  0.690
    9
step  115
O  -1.305  1.379  -0.737
Ti  -1.424  -0.622  -0.138
O  -2.504  -1.561  0.685
O  -0.111  -1.497  -0.972
Ti  0.079  1.774  0.215
O  1.426  1.299  -0.677
Ti  1.346  -0.605  -0.138
O  0.025  0.236  1.194
O  2.467  -1.493  0.689
    9
step  116
O  -1.310  1.377  -0.736
Ti  -1.422  -0.622  -0.137
O  -2.510  -1.559  0.685
O  -0.110  -1.497  -0.967
Ti  0.078  1.773  0.212
O  1.427  1.303  -0.672
Ti  1.345  -0.604  -0.138
O  0.030  0.237  1.195
O  2.470  -1.497  0.687
    9
step  117
O  -1.315  1.374  -0.735
Ti  -1.420  -0.622  -0.137
O  -2.517  -1.557  0.683
O  -0.108  -1.498  -0.963
Ti  0.077  1.772  0.209
O  1.429  1.306  -0.668
Ti  1.344  -0.603  -0.138
O  0.035  0.238  1.195
O  2.472  -1.501  0.685
    9
step  118
O  -1.321  1.372  -0.734
Ti  -1.418  -0.622  -0.136
O  -2.522  -1.554  0.682
O  -0.105  -1.498  -0.959
Ti  0.076  1.772  0.207
O  1.432  1.309  -0.664
Ti  1.343  -0.603  -0.138
O  0.039  0.239  1.194
O  2.473  -1.504  0.683
    9
step  119
O  -1.326  1.369  -0.733
Ti  -1.416  -0.622  -0.135
O  -2.527  -1.551  0.680
O  -0.101  -1.499  -0.954
Ti  0.074  1.772  0.205
O  1.436  1.312  -0.662
Ti  1.343  -0.603  -0.138
O  0.043  0.239  1.193
O  2.474  -1.507  0.680
    9
step  120
O  -1.331  1.366  -0.732
Ti  -1.414  -0.621  -0.134
O  -2.530  -1.548  0.678
O  -0.097  -1.500  -0.951
Ti  0.071  1.772  0.204
O  1.440  1.314  -0.660
Ti  1.342  -0.604  -0.138
O  0.047  0.239  1.191
O  2.473  -1.509  0.676
    9
step  121
O  -1.337  1.364  -0.730
Ti  -1.413  -0.621  -0.133
O  -2.532  -1.544  0.676
O  -0.091  -1.502  -0.947
Ti  0.068  1.773  0.203
O  1.446  1.317  -0.659
Ti  1.342  -0.604  -0.137
O  0.050  0.238  1.189
O  2.471  -1.510  0.672
    9
step  122
O  -1.342  1.361  -0.728
Ti  -1.412  -0.621  -0.131
O  -2.533  -1.539  0.673
O  -0.085  -1.504  -0.943
Ti  0.065  1.773  0.202
O  1.452  1.319  -0.658
Ti  1.342  -0.605  -0.137
O  0.053  0.237  1.187
O  2.468  -1.511  0.668
    9
step  123
O  -1.346  1.358  -0.726
Ti  -1.411  -0.621  -0.129
O  -2.533  -1.534  0.670
O  -0.079  -1.506  -0.940
Ti  0.062  1.774  0.201
O  1.459  1.322  -0.659
Ti  1.342  -0.606  -0.136
O  0.056  0.236  1.184
O  2.464  -1.511  0.663
    9
step  124
O  -1.351  1.355  -0.724
Ti  -1.410  -0.620  -0.127
O  -2.532  -1.529  0.666
O  -0.072  -1.508  -0.936
Ti  0.058  1.774  0.201
O  1.465  1.324  -0.659