   24
step    0
O  0.393  1.124  0.099
Ti  -3.218  0.222  -0.036
O  -0.044  -0.212  2.577
O  0.125  2.812  1.858
Ti  0.675  -2.701  -0.211
O  -0.393  -1.124  -0.099
O  -2.654  -0.989  1.387
Ti  3.218  -0.222  0.036
O  2.654  0.989  -1.387
O  4.792  -0.478  0.042
Ti  -0.943  -1.154  -1.907
O  0.044  0.212  -2.577
O  -4.792  0.478  -0.042
Ti  1.004  1.448  -1.660
O  0.180  3.078  -1.369
O  -0.125  -2.812  -1.858
Ti  0.943  1.154  1.907
O  2.222  -1.906  -0.119
O  2.603  0.741  1.619
Ti  -1.004  -1.448  1.660
O  -0.180  -3.078  1.369
O  -2.603  -0.741  -1.619
Ti  -0.675  2.701  0.211
O  -2.222  1.906  0.119
   24
step    1
O  0.396  1.122  0.097
Ti  -3.218  0.221  -0.039
O  -0.036  -0.218  2.580
O  0.134  2.809  1.859
Ti  0.676  -2.703  -0.208
O  -0.393  -1.127  -0.096
O  -2.660  -0.993  1.384
Ti  3.215  -0.221  0.034
O  2.654  0.996  -1.390
O  4.791  -0.474  0.039
Ti  -0.942  -1.155  -1.905
O  0.044  0.213  -2.583
O  -4.795  0.479  -0.039
Ti  1.004  1.452  -1.661
O  0.189  3.080  -1.368
O  -0.126  -2.818  -1.854
Ti  0.943  1.155  1.908
O  2.223  -1.907  -0.120
O  2.601  0.743  1.620
Ti  -1.003  -1.448  1.665
O  -0.185  -3.078  1.367
O  -2.597  -0.740  -1.622
Ti  -0.680  2.701  0.210
O  -2.225  1.910  0.116
   24
step    2
O  0.399  1.120  0.094
Ti  -3.219  0.221  -0.042
O  -0.029  -0.224  2.583
O  0.142  2.807  1.860
Ti  0.676  -2.706  -0.205
O  -0.394  -1.129  -0.093
O  -2.667  -0.996  1.380
Ti  3.213  -0.220  0.032
O  2.655  1.002  -1.393
O  4.791  -0.470  0.037
Ti  -0.940  -1.156  -1.903
O  0.045  0.214  -2.588
O  -4.799  0.480  -0.037
Ti  1.005  1.455  -1.661
O  0.198  3.082  -1.368
O  -0.127  -2.824  -1.851
Ti  0.943  1.155  1.908
O  2.226  -1.908  -0.121
O  2.599  0.746  1.622
Ti  -1.002  -1.448  1.669
O  -0.191  -3.078  1.365
O  -2.592  -0.739  -1.625
Ti  -0.685  2.700  0.210
O  -2.229  1.913  0.113
   24
step    3
O  0.401  1.117  0.092
Ti  -3.219  0.220  -0.045
O  -0.021  -0.229  2.586
O  0.150  2.805  1.861
Ti  0.677  -2.708  -0.202
O  -0.394  -1.131  -0.090
O  -2.674  -1.000  1.377
Ti  3.209  -0.220  0.029
O  2.656  1.009  -1.396
O  4.793  -0.466  0.034
Ti  -0.938  -1.157  -1.901
O  0.046  0.216  -2.594
O  -4.804  0.481  -0.034
Ti  1.005  1.458  -1.662
O  0.207  3.085  -1.368
O  -0.129  -2.831  -1.848
Ti  0.942  1.156  1.909
O  2.228  -1.908  -0.122
O  2.598  0.748  1.624
Ti  -1.001  -1.448  1.673
O  -0.196  -3.079  1.364
O  -2.587  -0.738  -1.628
Ti  -0.690  2.700  0.209
O  -2.233  1.917  0.110
   24
step    4
O  0.404  1.114  0.089
Ti  -3.218  0.220  -0.048
O  -0.013  -0.235  2.589
O  0.159  2.803  1.863
Ti  0.677  -2.710  -0.200
O  -0.394  -1.133  -0.086
O  -2.681  -1.003  1.374
Ti  3.206  -0.219  0.027
O  2.658  1.015  -1.399
O  4.795  -0.462  0.032
Ti  -0.936  -1.158  -1.899
O  0.047  0.217  -2.599
O  -4.810  0.482  -0.031
Ti  1.006  1.461  -1.663
O  0.216  3.088  -1.368
O  -0.130  -2.838  -1.845
Ti  0.942  1.157  1.909
O  2.231  -1.909  -0.123
O  2.597  0.750  1.626
Ti  -1.001  -1.449  1.677
O  -0.202  -3.080  1.364
O  -2.583  -0.737  -1.631
Ti  -0.694  2.700  0.209
O  -2.237  1.920  0.106
   24
step    5
O  0.406  1.111  0.087
Ti  -3.218  0.219  -0.051
O  -0.006  -0.241  2.593
O  0.166  2.802  1.864
Ti  0.678  -2.713  -0.197
O  -0.394  -1.134  -0.083
O  -2.688  -1.007  1.371
Ti  3.202  -0.218  0.025
O  2.660  1.021  -1.402
O  4.798  -0.458  0.029
Ti  -0.934  -1.159  -1.897
O  0.047  0.218  -2.605
O  -4.817  0.484  -0.029
Ti  1.006  1.465  -1.664
O  0.224  3.092  -1.368
O  -0.131  -2.844  -1.842
Ti  0.941  1.157  1.910
O  2.234  -1.909  -0.124
O  2.597  0.753  1.628
Ti  -1.000  -1.449  1.682
O  -0.207  -3.081  1.363
O  -2.580  -0.736  -1.634
Ti  -0.699  2.700  0.209
O  -2.242  1.923  0.103
   24
step    6
O  0.407  1.108  0.084
Ti  -3.217  0.218  -0.054
O  0.002  -0.247  2.596
O  0.174  2.802  1.866
Ti  0.678  -2.715  -0.194
O  -0.394  -1.135  -0.080
O  -2.694  -1.010  1.368
Ti  3.199  -0.217  0.023
O  2.663  1.027  -1.405
O  4.802  -0.455  0.027
Ti  -0.932  -1.160  -1.895
O  0.048  0.219  -2.611
O  -4.825  0.485  -0.026
Ti  1.007  1.468  -1.664
O  0.232  3.096  -1.368
O  -0.133  -2.851  -1.839
Ti  0.941  1.157  1.910
O  2.238  -1.910  -0.124
O  2.598  0.755  1.630
Ti  -1.000  -1.449  1.686
O  -0.212  -3.083  1.364
O  -2.578  -0.735  -1.637
Ti  -0.703  2.700  0.208
O  -2.248  1.926  0.099
   24
step    7
O  0.409  1.105  0.082
Ti  -3.217  0.218  -0.057
O  0.009  -0.253  2.600
O  0.181  2.802  1.867
Ti  0.679  -2.718  -0.192
O  -0.394  -1.136  -0.077
O  -2.701  -1.013  1.365
Ti  3.195  -0.216  0.021
O  2.667  1.033  -1.408
O  4.807  -0.452  0.024
Ti  -0.929  -1.161  -1.893
O  0.049  0.220  -2.616
O  -4.832  0.486  -0.024
Ti  1.007  1.471  -1.665
O  0.240  3.101  -1.368
O  -0.134  -2.858  -1.837
Ti  0.940  1.158  1.911
O  2.242  -1.910  -0.125
O  2.599  0.757  1.632
Ti  -0.999  -1.449  1.690
O  -0.218  -3.086  1.364
O  -2.576  -0.733  -1.640
Ti  -0.707  2.700  0.208
O  -2.254  1.929  0.096
   24
step    8
O  0.409  1.101  0.080
Ti  -3.217  0.217  -0.060
O  0.016  -0.258  2.604
O  0.187  2.803  1.869
Ti  0.679  -2.721  -0.189
O  -0.394  -1.136  -0.074
O  -2.707  -1.016  1.362
Ti  3.191  -0.215  0.018
O  2.671  1.038  -1.410
O  4.811  -0.449  0.022
Ti  -0.926  -1.162  -1.892
O  0.049  0.221  -2.622
O  -4.841  0.487  -0.021
Ti  1.008  1.474  -1.667
O  0.248  3.106  -1.367
O  -0.136  -2.865  -1.835
Ti  0.940  1.158  1.911
O  2.246  -1.911  -0.126
O  2.600  0.759  1.633
Ti  -0.999  -1.449  1.694
O  -0.224  -3.088  1.365
O  -2.575  -0.732  -1.643
Ti  -0.710  2.700  0.207
O  -2.260  1.932  0.092
   24
step    9
O  0.410  1.098  0.078
Ti  -3.217  0.217  -0.063
O  0.022  -0.264  2.608
O  0.192  2.805  1.870
Ti  0.679  -2.724  -0.187
O  -0.394  -1.136  -0.071
O  -2.713  -1.019  1.360
Ti  3.188  -0.214  0.016
O  2.675  1.043  -1.413
O  4.817  -0.446  0.019
Ti  -0.923  -1.163  -1.890
O  0.050  0.222  -2.627
O  -4.849  0.488  -0.019
Ti  1.008  1.477  -1.668
O  0.255  3.111  -1.366
O  -0.137  -2.872  -1.832
Ti  0.940  1.158  1.912
O  2.250  -1.911  -0.127
O  2.602  0.761  1.635
Ti  -0.999  -1.449  1.698
O  -0.229  -3.091  1.366
O  -2.574  -0.730  -1.647
Ti  -0.713  2.701  0.207
O  -2.266  1.935  0.088
   24
step   10
O  0.410  1.095  0.076
Ti  -3.217  0.216  -0.065
O  0.029  -0.270  2.613
O  0.197  2.807  1.872
Ti  0.680  -2.726  -0.184
O  -0.394  -1.136  -0.068
O  -2.719  -1.022  1.357
Ti  3.185  -0.213  0.014
O  2.679  1.048  -1.415
O  4.822  -0.443  0.016
Ti  -0.920  -1.163  -1.889
O  0.051  0.223  -2.632
O  -4.856  0.489  -0.017
Ti  1.009  1.479  -1.669
O  0.261  3.117  -1.365
O  -0.139  -2.879  -1.830
Ti  0.940  1.158  1.913
O  2.254  -1.912  -0.128
O  2.604  0.763  1.637
Ti  -1.000  -1.450  1.702
O  -0.235  -3.094  1.368
O  -2.574  -0.728  -1.650
Ti  -0.715  2.701  0.206
O  -2.272  1.938  0.085
   24
step   11
O  0.409  1.092  0.074
Ti  -3.217  0.215  -0.068
O  0.035  -0.276  2.617
O  0.202  2.809  1.873
Ti  0.680  -2.729  -0.182
O  -0.394  -1.136  -0.065
O  -2.724  -1.025  1.354
Ti  3.182  -0.212  0.012
O  2.684  1.053  -1.417
O  4.827  -0.440  0.014
Ti  -0.917  -1.164  -1.888
O  0.052  0.224  -2.637
O  -4.864  0.490  -0.014
Ti  1.009  1.482  -1.671
O  0.267  3.123  -1.364
O  -0.140  -2.886  -1.828
Ti  0.939  1.158  1.914
O  2.257  -1.912  -0.129
O  2.607  0.765  1.638
Ti  -1.000  -1.450  1.706
O  -0.240  -3.098  1.369
O  -2.575  -0.726  -1.653
Ti  -0.717  2.701  0.206
O  -2.279  1.941  0.081
   24
step   12
O  0.408  1.089  0.073
Ti  -3.218  0.215  -0.071
O  0.041  -0.281  2.622
O  0.205  2.812  1.874
Ti  0.680  -2.732  -0.180
O  -0.394  -1.136  -0.062
O  -2.729  -1.027  1.352
Ti  3.179  -0.211  0.010
O  2.689  1.057  -1.419
O  4.832  -0.437  0.011
Ti  -0.913  -1.165  -1.887
O  0.052  0.225  -2.642
O  -4.871  0.491  -0.012
Ti  1.010  1.484  -1.672
O  0.272  3.129  -1.362
O  -0.142  -2.893  -1.826
Ti  0.939  1.157  1.914
O  2.261  -1.913  -0.130
O  2.609  0.766  1.640
Ti  -1.001  -1.450  1.710
O  -0.246  -3.102  1.372
O  -2.576  -0.723  -1.656
Ti  -0.719  2.702  0.205
O  -2.285  1.944  0.077
   24
step   13
O  0.406  1.086  0.072
Ti  -3.219  0.214  -0.073
O  0.047  -0.287  2.626
O  0.208  2.816  1.874
Ti  0.681  -2.735  -0.178
O  -0.393  -1.136  -0.060
O  -2.733  -1.029  1.349
Ti  3.177  -0.210  0.008
O  2.694  1.062  -1.421
O  4.836  -0.434  0.008
Ti  -0.910  -1.166  -1.886
O  0.053  0.225  -2.647
O  -4.877  0.492  -0.010
Ti  1.011  1.486  -1.674
O  0.276  3.136  -1.359
O  -0.144  -2.899  -1.824
Ti  0.939  1.157  1.915
O  2.264  -1.914  -0.131
O  2.612  0.768  1.641
Ti  -1.002  -1.451  1.714
O  -0.252  -3.106  1.374
O  -2.578  -0.721  -1.659
Ti  -0.720  2.703  0.205
O  -2.291  1.947  0.073
   24
step   14
O  0.404  1.084  0.071
Ti  -3.221  0.214  -0.075
O  0.052  -0.293  2.631
O  0.210  2.820  1.874
Ti  0.681  -2.738  -0.176
O  -0.393  -1.135  -0.058
O  -2.737  -1.031  1.347
Ti  3.175  -0.209  0.006
O  2.698  1.066  -1.423
O  4.840  -0.430  0.006
Ti  -0.906  -1.167  -1.885
O  0.054  0.226  -2.651
O  -4.882  0.493  -0.008
Ti  1.012  1.489  -1.676
O  0.280  3.142  -1.357
O  -0.145  -2.905  -1.821
Ti  0.940  1.156  1.916
O  2.268  -1.915  -0.132
O  2.616  0.769  1.642
Ti  -1.004  -1.451  1.717
O  -0.257  -3.110  1.377
O  -2.580  -0.718  -1.662
Ti  -0.721  2.703  0.205
O  -2.297  1.950  0.070
   24
step   15
O  0.402  1.082  0.070
Ti  -3.223  0.214  -0.078
O  0.057  -0.299  2.636
O  0.212  2.824  1.874
Ti  0.681  -2.741  -0.174
O  -0.393  -1.135  -0.056
O  -2.739  -1.032  1.344
Ti  3.174  -0.208  0.004
O  2.703  1.070  -1.424
O  4.844  -0.427  0.003
Ti  -0.902  -1.168  -1.884
O  0.054  0.226  -2.655
O  -4.887  0.493  -0.006
Ti  1.013  1.491  -1.678
O  0.284  3.149  -1.353
O  -0.147  -2.911  -1.819
Ti  0.940  1.155  1.917
O  2.270  -1.916  -0.133
O  2.619  0.771  1.643
Ti  -1.006  -1.452  1.721
O  -0.263  -3.115  1.380
O  -2.582  -0.716  -1.665
Ti  -0.721  2.704  0.204
O  -2.303  1.953  0.066
   24
step   16
O  0.399  1.080  0.070
Ti  -3.226  0.213  -0.080
O  0.063  -0.304  2.641
O  0.213  2.828  1.873
Ti  0.681  -2.744  -0.172
O  -0.392  -1.134  -0.055
O  -2.741  -1.033  1.342
Ti  3.173  -0.207  0.002
O  2.708  1.074  -1.426
O  4.846  -0.424  0.001
Ti  -0.898  -1.168  -1.884
O  0.055  0.226  -2.659
O  -4.891  0.493  -0.005
Ti  1.014  1.492  -1.680
O  0.286  3.155  -1.350
O  -0.149  -2.917  -1.816
Ti  0.941  1.154  1.917
O  2.272  -1.917  -0.135
O  2.623  0.772  1.644
Ti  -1.008  -1.452  1.724
O  -0.268  -3.119  1.384
O  -2.584  -0.713  -1.668
Ti  -0.721  2.704  0.204
O  -2.308  1.956  0.062
   24
step   17
O  0.395  1.079  0.070
Ti  -3.229  0.213  -0.082
O  0.068  -0.310  2.647
O  0.214  2.832  1.872
Ti  0.681  -2.747  -0.170
O  -0.391  -1.134  -0.053
O  -2.743  -1.035  1.339
Ti  3.173  -0.206  -0.000
O  2.712  1.078  -1.427
O  4.848  -0.421  -0.002
Ti  -0.895  -1.169  -1.883
O  0.056  0.226  -2.662
O  -4.894  0.494  -0.003
Ti  1.015  1.494  -1.682
O  0.288  3.161  -1.346
O  -0.151  -2.922  -1.813
Ti  0.941  1.153  1.918
O  2.274  -1.919  -0.136
O  2.626  0.773  1.645
Ti  -1.010  -1.453  1.727
O  -0.273  -3.124  1.387
O  -2.585  -0.710  -1.670
Ti  -0.721  2.705  0.203
O  -2.313  1.960  0.059
   24
step   18
O  0.392  1.079  0.070
Ti  -3.233  0.213  -0.084
O  0.072  -0.315  2.652
O  0.214  2.837  1.871
Ti  0.681  -2.750  -0.169
O  -0.391  -1.134  -0.052
O  -2.743  -1.036  1.337
Ti  3.174  -0.205  -0.002
O  2.716  1.082  -1.428
O  4.849  -0.417  -0.004
Ti  -0.891  -1.170  -1.883
O  0.057  0.226  -2.665
O  -4.897  0.494  -0.002
Ti  1.016  1.496  -1.684
O  0.290  3.168  -1.341
O  -0.153  -2.926  -1.810
Ti  0.942  1.152  1.919
O  2.275  -1.921  -0.137
O  2.630  0.773  1.645
Ti  -1.013  -1.454  1.730
O  -0.278  -3.128  1.391
O  -2.587  -0.708  -1.673
Ti  -0.720  2.706  0.203
O  -2.318  1.963  0.056
   24
step   19
O  0.388  1.079  0.070
Ti  -3.237  0.213  -0.086
O  0.077  -0.320  2.657
O  0.213  2.841  1.869
Ti  0.681  -2.753  -0.167
O  -0.390  -1.134  -0.051
O  -2.743  -1.036  1.335
Ti  3.175  -0.204  -0.004
O  2.720  1.085  -1.429
O  4.849  -0.414  -0.007
Ti  -0.887  -1.170  -1.883
O  0.058  0.225  -2.667
O  -4.899  0.493  -0.001
Ti  1.018  1.497  -1.686
O  0.291  3.174  -1.336
O  -0.155  -2.930  -1.806
Ti  0.943  1.151  1.920
O  2.276  -1.922  -0.139
O  2.634  0.774  1.645
Ti  -1.015  -1.455  1.733
O  -0.283  -3.133  1.395
O  -2.589  -0.705  -1.676
Ti  -0.719  2.707  0.202
O  -2.323  1.967  0.053
   24
step   20
O  0.384  1.079  0.070
Ti  -3.242  0.213  -0.087
O  0.081  -0.325  2.662
O  0.212  2.845  1.867
Ti  0.681  -2.756  -0.165
O  -0.389  -1.134  -0.051
O  -2.741  -1.037  1.333
Ti  3.177  -0.203  -0.006
O  2.724  1.088  -1.430
O  4.848  -0.411  -0.009
Ti  -0.884  -1.171  -1.883
O  0.059  0.225  -2.669
O  -4.900  0.493  -0.001
Ti  1.019  1.499  -1.689
O  0.291  3.179  -1.331
O  -0.156  -2.934  -1.803
Ti  0.944  1.149  1.920
O  2.276  -1.924  -0.141
O  2.637  0.774  1.645
Ti  -1.019  -1.456  1.736
O  -0.287  -3.137  1.399
O  -2.590  -0.702  -1.679
Ti  -0.717  2.708  0.202
O  -2.327  1.970  0.050
   24
step   21
O  0.379  1.080  0.070
Ti  -3.247  0.213  -0.089
O  0.085  -0.330  2.667
O  0.210  2.849  1.865
Ti  0.681  -2.759  -0.163
O  -0.388  -1.134  -0.050
O  -2.739  -1.038  1.331
Ti  3.179  -0.202  -0.008
O  2.727  1.091  -1.430
O  4.846  -0.407  -0.011
Ti  -0.881  -1.171  -1.883
O  0.061  0.225  -2.670
O  -4.901  0.493  -0.000
Ti  1.021  1.500  -1.691
O  0.291  3.185  -1.325
O  -0.158  -2.937  -1.799
Ti  0.945  1.148  1.921
O  2.276  -1.927  -0.142
O  2.641  0.774  1.645
Ti  -1.022  -1.457  1.739
O  -0.291  -3.141  1.403
O  -2.590  -0.700  -1.682
Ti  -0.716  2.708  0.202
O  -2.331  1.974  0.047
   24
step   22
O  0.375  1.081  0.071
Ti  -3.252  0.214  -0.090
O  0.089  -0.334  2.671
O  0.208  2.853  1.862
Ti  0.681  -2.761  -0.162
O  -0.387  -1.134  -0.050
O  -2.737  -1.038  1.330
Ti  3.181  -0.201  -0.010
O  2.730  1.094  -1.431
O  4.844  -0.404  -0.013
Ti  -0.877  -1.171  -1.883
O  0.062  0.224  -2.671
O  -4.901  0.492  0.000
Ti  1.023  1.501  -1.693
O  0.290  3.190  -1.320
O  -0.160  -2.940  -1.795
Ti  0.947  1.146  1.922
O  2.275  -1.929  -0.144
O  2.644  0.774  1.644
Ti  -1.025  -1.458  1.741
O  -0.295  -3.144  1.407
O  -2.590  -0.697  -1.685
Ti  -0.714  2.709  0.201
O  -2.334  1.977  0.045
   24
step   23
O  0.371  1.083  0.072
Ti  -3.258  0.214  -0.091
O  0.092  -0.338  2.676
O  0.205  2.857  1.859
Ti  0.681  -2.764  -0.160
O  -0.386  -1.134  -0.050
O  -2.734  -1.039  1.328
Ti  3.185  -0.200  -0.011
O  2.732  1.096  -1.431
O  4.841  -0.401  -0.016
Ti  -0.875  -1.171  -1.883
O  0.064  0.224  -2.671
O  -4.901  0.492  0.000
Ti  1.024  1.503  -1.696
O  0.289  3.195  -1.314
O  -0.162  -2.943  -1.791
Ti  0.948  1.144  1.922
O  2.274  -1.931  -0.146
O  2.648  0.774  1.644
Ti  -1.029  -1.460  1.743
O  -0.298  -3.148  1.411
O  -2.590  -0.695  -1.688
Ti  -0.712  2.710  0.201
O  -2.336  1.981  0.043
   24
step   24
O  0.366  1.085  0.072
Ti  -3.264  0.215  -0.092
O  0.095  -0.342  2.680
O  0.202  2.860  1.856
Ti  0.680  -2.767  -0.158
O  -0.385  -1.135  -0.050
O  -2.730  -1.039  1.327
Ti  3.188  -0.199  -0.013
O  2.734  1.098  -1.432
O  4.837  -0.398  -0.018
Ti  -0.872  -1.172  -1.883
O  0.065  0.223  -2.670
O  -4.900  0.491  -0.000
Ti  1.026  1.504  -1.698
O  0.287  3.199  -1.308
O  -0.164  -2.945  -1.787
Ti  0.950  1.143  1.923
O  2.272  -1.934  -0.147
O  2.651  0.774  1.643
Ti  -1.033  -1.461  1.745
O  -0.301  -3.151  1.415
O  -2.589  -0.692  -1.691
Ti  -0.710  2.711  0.201
O  -2.338  1.984  0.041
   24
step   25
O  0.362  1.087  0.073
Ti  -3.271  0.215  -0.093
O  0.097  -0.345  2.683
O  0.198  2.863  1.852
Ti  0.679  -2.770  -0.157
O  -0.384  -1.136  -0.050
O  -2.726  -1.039  1.326
Ti  3.192  -0.198  -0.015
O  2.735  1.101  -1.432
O  4.834  -0.395  -0.020
Ti  -0.869  -1.172  -1.883
O  0.067  0.223  -2.669
O  -4.899  0.490  -0.000
Ti  1.028  1.505  -1.700
O  0.285  3.203  -1.303
O  -0.166  -2.946  -1.783
Ti  0.952  1.141  1.923
O  2.269  -1.936  -0.149
O  2.654  0.773  1.642
Ti  -1.037  -1.463  1.747
O  -0.304  -3.153  1.419
O  -2.588  -0.690  -1.694
Ti  -0.707  2.712  0.201
O  -2.339  1.988  0.039
   24
step   26
O  0.358  1.089  0.074
Ti  -3.277  0.216  -0.094
O  0.100  -0.347  2.686
O  0.194  2.866  1.849
Ti  0.679  -2.772  -0.155
O  -0.383  -1.137  -0.051
O  -2.721  -1.039  1.325
Ti  3.196  -0.197  -0.017
O  2.736  1.103  -1.433
O  4.830  -0.391  -0.022
Ti  -0.867  -1.171  -1.883
O  0.070  0.222  -2.668
O  -4.899  0.489  -0.001
Ti  1.030  1.506  -1.703
O  0.283  3.206  -1.297
O  -0.168  -2.947  -1.779
Ti  0.954  1.139  1.924
O  2.267  -1.939  -0.151
O  2.657  0.773  1.641
Ti  -1.040  -1.465  1.749
O  -0.307  -3.155  1.423
O  -2.586  -0.688  -1.697
Ti  -0.705  2.713  0.201
O  -2.340  1.991  0.037
   24
step   27
O  0.353  1.092  0.074
Ti  -3.284  0.217  -0.095
O  0.102  -0.350  2.689
O  0.190  2.868  1.846
Ti  0.678  -2.775  -0.153
O  -0.381  -1.139  -0.051
O  -2.716  -1.039  1.324
Ti  3.201  -0.196  -0.019
O  2.736  1.105  -1.433
O  4.826  -0.388  -0.024
Ti  -0.865  -1.171  -1.883
O  0.072  0.222  -2.666
O  -4.898  0.488  -0.002
Ti  1.032  1.507  -1.705
O  0.281  3.209  -1.291
O  -0.169  -2.948  -1.775
Ti  0.956  1.137  1.924
O  2.264  -1.942  -0.153
O  2.659  0.772  1.639
Ti  -1.044  -1.467  1.751
O  -0.309  -3.157  1.426
O  -2.583  -0.686  -1.700
Ti  -0.702  2.714  0.200
O  -2.340  1.994  0.036
   24
step   28
O  0.349  1.095  0.075
Ti  -3.291  0.218  -0.096
O  0.104  -0.352  2.692
O  0.186  2.870  1.842
Ti  0.677  -2.777  -0.151
O  -0.380  -1.140  -0.052
O  -2.711  -1.039  1.323
Ti  3.206  -0.195  -0.020
O  2.736  1.107  -1.434
O  4.823  -0.385  -0.027
Ti  -0.864  -1.171  -1.883
O  0.075  0.222  -2.664
O  -4.898  0.487  -0.003
Ti  1.034  1.509  -1.707
O  0.279  3.211  -1.286
O  -0.171  -2.949  -1.771
Ti  0.958  1.135  1.925
O  2.260  -1.944  -0.154
O  2.661  0.771  1.638
Ti  -1.048  -1.469  1.752
O  -0.312  -3.159  1.429
O  -2.580  -0.684  -1.703
Ti  -0.699  2.715  0.201
O  -2.340  1.997  0.035
   24
step   29
O  0.345  1.098  0.075
Ti  -3.297  0.220  -0.096
O  0.106  -0.353  2.694
O  0.182  2.871  1.839
Ti  0.676  -2.780  -0.149
O  -0.379  -1.142  -0.052
O  -2.706  -1.038  1.323
Ti  3.210  -0.194  -0.022
O  2.736  1.109  -1.434
O  4.820  -0.382  -0.029
Ti  -0.862  -1.171  -1.883
O  0.078  0.222  -2.661
O  -4.899  0.485  -0.004
Ti  1.036  1.510  -1.709
O  0.277  3.213  -1.281
O  -0.173  -2.949  -1.768
Ti  0.960  1.133  1.925
O  2.257  -1.947  -0.156
O  2.663  0.770  1.636
Ti  -1.052  -1.471  1.753
O  -0.314  -3.160  1.432
O  -2.576  -0.682  -1.706
Ti  -0.696  2.716  0.201
O  -2.339  1.999  0.034
   24
step   30
O  0.341  1.101  0.076
Ti  -3.303  0.221  -0.097
O  0.107  -0.354  2.695
O  0.178  2.872  1.835
Ti  0.675  -2.782  -0.147
O  -0.377  -1.144  -0.053
O  -2.700  -1.038  1.322
Ti  3.215  -0.193  -0.024
O  2.735  1.111  -1.434
O  4.818  -0.379  -0.031
Ti  -0.861  -1.170  -1.883
O  0.082  0.222  -2.657
O  -4.900  0.484  -0.005
Ti  1.038  1.511  -1.711
O  0.275  3.214  -1.276
O  -0.175  -2.949  -1.764
Ti  0.962  1.131  1.925
O  2.253  -1.949  -0.158
O  2.665  0.768  1.634
Ti  -1.055  -1.473  1.755
O  -0.315  -3.161  1.435
O  -2.572  -0.680  -1.709
Ti  -0.694  2.716  0.201
O  -2.338  2.001  0.033
   24
step   31
O  0.337  1.104  0.076
Ti  -3.310  0.222  -0.097
O  0.108  -0.355  2.696
O  0.174  2.873  1.832
Ti  0.673  -2.785  -0.145
O  -0.376  -1.147  -0.053
O  -2.695  -1.037  1.322
Ti  3.219  -0.192  -0.025
O  2.734  1.112  -1.435
O  4.816  -0.376  -0.034
Ti  -0.860  -1.170  -1.883
O  0.085  0.222  -2.654
O  -4.902  0.482  -0.006
Ti  1.039  1.512  -1.713
O  0.273  3.214  -1.271
O  -0.177  -2.948  -1.760
Ti  0.964  1.128  1.926
O  2.249  -1.952  -0.159
O  2.666  0.767  1.632
Ti  -1.059  -1.475  1.756
O  -0.317  -3.161  1.438
O  -2.568  -0.679  -1.712
Ti  -0.691  2.717  0.201
O  -2.336  2.003  0.032
   24
step   32
O  0.333  1.107  0.077
Ti  -3.315  0.224  -0.098
O  0.109  -0.355  2.697
O  0.170  2.873  1.829
Ti  0.672  -2.787  -0.143
O  -0.375  -1.149  -0.054
O  -2.689  -1.035  1.322
Ti  3.224  -0.191  -0.027
O  2.732  1.114  -1.435
O  4.816  -0.374  -0.037
Ti  -0.860  -1.169  -1.883
O  0.089  0.222  -2.650
O  -4.905  0.481  -0.007
Ti  1.041  1.514  -1.714
O  0.271  3.214  -1.267
O  -0.179  -2.948  -1.757
Ti  0.966  1.126  1.926
O  2.244  -1.954  -0.161
O  2.667  0.766  1.630
Ti  -1.062  -1.477  1.757
O  -0.318  -3.161  1.440
O  -2.564  -0.677  -1.715
Ti  -0.688  2.718  0.201
O  -2.335  2.004  0.031
   24
step   33
O  0.330  1.109  0.077
Ti  -3.321  0.226  -0.098
O  0.110  -0.355  2.697
O  0.166  2.872  1.826
Ti  0.670  -2.789  -0.140
O  -0.373  -1.152  -0.054
O  -2.684  -1.034  1.321
Ti  3.228  -0.190  -0.029
O  2.730  1.116  -1.435
O  4.817  -0.371  -0.039
Ti  -0.859  -1.169  -1.883
O  0.094  0.222  -2.646
O  -4.909  0.479  -0.009
Ti  1.043  1.515  -1.716
O  0.270  3.213  -1.264
O  -0.180  -2.947  -1.754
Ti  0.968  1.124  1.926
O  2.240  -1.956  -0.162
O  2.667  0.764  1.628
Ti  -1.065  -1.480  1.758
O  -0.319  -3.161  1.443
O  -2.559  -0.675  -1.718
Ti  -0.686  2.719  0.202
O  -2.333  2.005  0.031
   24
step   34
O  0.327  1.112  0.077
Ti  -3.326  0.228  -0.098
O  0.111  -0.354  2.697
O  0.162  2.871  1.824
Ti  0.668  -2.791  -0.138
O  -0.372  -1.155  -0.055
O  -2.679  -1.032  1.321
Ti  3.231  -0.189  -0.030
O  2.728  1.117  -1.435
O  4.820  -0.369  -0.042
Ti  -0.859  -1.168  -1.883
O  0.098  0.222  -2.642
O  -4.914  0.477  -0.010
Ti  1.044  1.517  -1.717
O  0.268  3.212  -1.261
O  -0.182  -2.946  -1.751
Ti  0.970  1.122  1.926
O  2.236  -1.958  -0.163
O  2.668  0.762  1.625
Ti  -1.067  -1.482  1.758
O  -0.320  -3.160  1.445
O  -2.554  -0.674  -1.721
Ti  -0.683  2.720  0.202
O  -2.331  2.006  0.031
   24
step   35
O  0.325  1.114  0.077
Ti  -3.331  0.230  -0.098
O  0.111  -0.353  2.696
O  0.158  2.870  1.822
Ti  0.667  -2.793  -0.136
O  -0.370  -1.158  -0.055
O  -2.675  -1.030  1.320
Ti  3.235  -0.188  -0.032
O  2.726  1.119  -1.435
O  4.823  -0.367  -0.045
Ti  -0.859  -1.168  -1.883
O  0.103  0.223  -2.637
O  -4.920  0.475  -0.012
Ti  1.045  1.518  -1.718
O  0.267  3.211  -1.258
O  -0.184  -2.945  -1.748
Ti  0.972  1.121  1.926
O  2.232  -1.960  -0.164
O  2.668  0.761  1.623
Ti  -1.070  -1.485  1.759
O  -0.320  -3.160  1.447
O  -2.549  -0.673  -1.723
Ti  -0.681  2.721  0.203
O  -2.328  2.006  0.030
   24
step   36
O  0.323  1.116  0.077
Ti  -3.335  0.232  -0.099
O  0.111  -0.352  2.695
O  0.155  2.868  1.820
Ti  0.665  -2.795  -0.133
O  -0.369  -1.161  -0.055
O  -2.672  -1.028  1.320
Ti  3.238  -0.187  -0.033
O  2.724  1.120  -1.435
O  4.829  -0.366  -0.048
Ti  -0.859  -1.167  -1.882
O  0.108  0.224  -2.633
O  -4.927  0.474  -0.014
Ti  1.046  1.520  -1.719
O  0.266  3.209  -1.256
O  -0.185  -2.943  -1.746
Ti  0.973  1.119  1.926
O  2.228  -1.961  -0.165
O  2.668  0.759  1.620
Ti  -1.071  -1.488  1.760
O  -0.320  -3.159  1.449
O  -2.544  -0.671  -1.725
Ti  -0.679  2.722  0.204
O  -2.326  2.005  0.030
   24
step   37
O  0.322  1.117  0.077
Ti  -3.339  0.234  -0.099
O  0.112  -0.350  2.693
O  0.151  2.866  1.819
Ti  0.662  -2.797  -0.131
O  -0.368  -1.165  -0.055
O  -2.669  -1.025  1.319
Ti  3.241  -0.186  -0.035
O  2.721  1.121  -1.435
O  4.835  -0.364  -0.051
Ti  -0.860  -1.167  -1.882
O  0.112  0.224  -2.628
O  -4.935  0.472  -0.016
Ti  1.047  1.522  -1.720
O  0.266  3.207  -1.255
O  -0.187  -2.942  -1.744
Ti  0.975  1.117  1.925
O  2.224  -1.962  -0.166
O  2.667  0.757  1.617
Ti  -1.073  -1.491  1.760
O  -0.320  -3.158  1.451
O  -2.540  -0.670  -1.727
Ti  -0.677  2.723  0.204
O  -2.324  2.004  0.030
   24
step   38
O  0.321  1.119  0.077
Ti  -3.343  0.236  -0.099
O  0.111  -0.348  2.691
O  0.148  2.863  1.818
Ti  0.660  -2.798  -0.128
O  -0.366  -1.168  -0.055
O  -2.667  -1.022  1.319
Ti  3.243  -0.185  -0.036
O  2.719  1.122  -1.435
O  4.843  -0.362  -0.054
Ti  -0.860  -1.166  -1.882
O  0.117  0.225  -2.623
O  -4.944  0.470  -0.018
Ti  1.048  1.524  -1.721
O  0.266  3.205  -1.255
O  -0.189  -2.940  -1.742
Ti  0.976  1.115  1.925
O  2.221  -1.962  -0.167
O  2.667  0.755  1.614
Ti  -1.074  -1.493  1.761
O  -0.320  -3.157  1.452
O  -2.535  -0.668  -1.729
Ti  -0.675  2.724  0.205
O  -2.322  2.003  0.031
   24
step   39
O  0.321  1.120  0.077
Ti  -3.346  0.238  -0.099
O  0.111  -0.346  2.688
O  0.145  2.860  1.818
Ti  0.658  -2.800  -0.126
O  -0.365  -1.171  -0.054
O  -2.665  -1.019  1.318
Ti  3.246  -0.184  -0.038
O  2.716  1.122  -1.434
O  4.851  -0.360  -0.057
Ti  -0.860  -1.165  -1.881
O  0.122  0.226  -2.618
O  -4.953  0.469  -0.019
Ti  1.049  1.526  -1.721
O  0.266  3.202  -1.255
O  -0.190  -2.938  -1.740
Ti  0.977  1.113  1.925
O  2.218  -1.963  -0.167
O  2.666  0.753  1.611
Ti  -1.074  -1.496  1.761
O  -0.320  -3.156  1.454
O  -2.530  -0.667  -1.730
Ti  -0.674  2.725  0.206
O  -2.320  2.000  0.031
   24
step   40
O  0.322  1.120  0.077
Ti  -3.349  0.240  -0.099
O  0.110  -0.343  2.685
O  0.142  2.856  1.819
Ti  0.656  -2.802  -0.124
O  -0.363  -1.174  -0.054
O  -2.665  -1.016  1.317
Ti  3.248  -0.183  -0.039
O  2.713  1.122  -1.434
O  4.861  -0.359  -0.061
Ti  -0.861  -1.164  -1.881
O  0.127  0.226  -2.614
O  -4.963  0.467  -0.021
Ti  1.049  1.528  -1.722
O  0.266  3.199  -1.256
O  -0.192  -2.936  -1.738
Ti  0.978  1.111  1.924
O  2.215  -1.963  -0.168
O  2.666  0.751  1.608
Ti  -1.074  -1.499  1.761
O  -0.319  -3.154  1.456
O  -2.526  -0.665  -1.731
Ti  -0.673  2.726  0.208
O  -2.317  1.998  0.031
   24
step   41
O  0.323  1.120  0.076
Ti  -3.352  0.243  -0.099
O  0.110  -0.341  2.682
O  0.140  2.852  1.820
Ti  0.653  -2.803  -0.122
O  -0.362  -1.178  -0.053
O  -2.666  -1.012  1.315
Ti  3.250  -0.182  -0.041
O  2.711  1.122  -1.433
O  4.870  -0.357  -0.064
Ti  -0.861  -1.164  -1.880
O  0.132  0.227  -2.609
O  -4.973  0.465  -0.024
Ti  1.049  1.530  -1.722
O  0.266  3.197  -1.258
O  -0.193  -2.935  -1.737
Ti  0.979  1.110  1.923
O  2.213  -1.962  -0.168
O  2.665  0.749  1.604
Ti  -1.074  -1.502  1.761
O  -0.319  -3.153  1.458
O  -2.521  -0.663  -1.732
Ti  -0.672  2.726  0.209
O  -2.315  1.995  0.032
   24
step   42
O  0.325  1.120  0.076
Ti  -3.354  0.245  -0.099
O  0.108  -0.337  2.678
O  0.138  2.847  1.821
Ti  0.651  -2.804  -0.119
O  -0.361  -1.180  -0.052
O  -2.667  -1.008  1.314
Ti  3.252  -0.182  -0.042
O  2.709  1.122  -1.432
O  4.880  -0.355  -0.067
Ti  -0.862  -1.163  -1.879
O  0.137  0.228  -2.604
O  -4.984  0.463  -0.026
Ti  1.049  1.532  -1.722
O  0.267  3.194  -1.261
O  -0.194  -2.933  -1.736
Ti  0.980  1.108  1.923
O  2.211  -1.962  -0.168
O  2.665  0.746  1.600
Ti  -1.073  -1.505  1.761
O  -0.318  -3.152  1.460
O  -2.517  -0.662  -1.732
Ti  -0.671  2.727  0.210
O  -2.314  1.991  0.033
   24
step   43
O  0.327  1.119  0.076
Ti  -3.356  0.248  -0.099
O  0.107  -0.334  2.673
O  0.136  2.843  1.824
Ti  0.648  -2.806  -0.117
O  -0.360  -1.183  -0.050
O  -2.669  -1.003  1.313
Ti  3.254  -0.181  -0.044
O  2.707  1.121  -1.431
O  4.890  -0.354  -0.071
Ti  -0.862  -1.162  -1.879
O  0.142  0.228  -2.599
O  -4.995  0.461  -0.028
Ti  1.049  1.535  -1.721
O  0.267  3.191  -1.264
O  -0.196  -2.931  -1.736
Ti  0.980  1.107  1.922
O  2.209  -1.961  -0.168
O  2.664  0.744  1.596
Ti  -1.072  -1.508  1.761
O  -0.317  -3.151  1.462
O  -2.514  -0.660  -1.732
Ti  -0.671  2.728  0.211
O  -2.312  1.987  0.033
   24
step   44
O  0.330  1.119  0.076
Ti  -3.359  0.251  -0.099
O  0.105  -0.331  2.668
O  0.134  2.837  1.826
Ti  0.646  -2.807  -0.115
O  -0.358  -1.186  -0.048
O  -2.672  -0.999  1.311
Ti  3.256  -0.180  -0.045
O  2.705  1.120  -1.429
O  4.900  -0.352  -0.074
Ti  -0.863  -1.161  -1.878
O  0.147  0.229  -2.594
O  -5.005  0.459  -0.030
Ti  1.048  1.537  -1.721
O  0.268  3.188  -1.268
O  -0.197  -2.929  -1.735
Ti  0.981  1.105  1.921
O  2.208  -1.959  -0.168
O  2.664  0.741  1.592
Ti  -1.070  -1.511  1.761
O  -0.316  -3.150  1.464
O  -2.511  -0.657  -1.731
Ti  -0.670  2.728  0.213
O  -2.310  1.982  0.034
   24
step   45
O  0.333  1.117  0.075
Ti  -3.361  0.254  -0.099
O  0.103  -0.327  2.663
O  0.133  2.832  1.830
Ti  0.644  -2.808  -0.113
O  -0.357  -1.188  -0.046
O  -2.675  -0.994  1.309
Ti  3.259  -0.179  -0.047
O  2.704  1.119  -1.427
O  4.910  -0.351  -0.077
Ti  -0.863  -1.161  -1.877
O  0.152  0.229  -2.589
O  -5.014  0.456  -0.032
Ti  1.047  1.540  -1.720
O  0.268  3.186  -1.272
O  -0.199  -2.927  -1.735
Ti  0.981  1.104  1.919
O  2.207  -1.957  -0.168
O  2.664  0.738  1.587
Ti  -1.069  -1.513  1.761
O  -0.315  -3.149  1.466
O  -2.508  -0.655  -1.730
Ti  -0.670  2.729  0.214
O  -2.309  1.977  0.035
   24
step   46
O  0.337  1.116  0.075
Ti  -3.363  0.256  -0.099
O  0.101  -0.323  2.657
O  0.132  2.826  1.834
Ti  0.641  -2.809  -0.112
O  -0.356  -1.190  -0.044
O  -2.679  -0.989  1.308
Ti  3.261  -0.178  -0.049
O  2.702  1.117  -1.425
O  4.918  -0.349  -0.080
Ti  -0.863  -1.160  -1.876
O  0.157  0.228  -2.584
O  -5.022  0.453  -0.035
Ti  1.047  1.543  -1.719
O  0.269  3.183  -1.277
O  -0.200  -2.925  -1.735
Ti  0.980  1.102  1.918
O  2.206  -1.955  -0.167
O  2.663  0.735  1.583
Ti  -1.066  -1.516  1.761
O  -0.314  -3.148  1.469
O  -2.507  -0.653  -1.729
Ti  -0.671  2.729  0.215
O  -2.307  1.972  0.036
   24
step   47
O  0.341  1.114  0.075
Ti  -3.365  0.259  -0.099
O  0.098  -0.319  2.651
O  0.131  2.819  1.839
Ti  0.639  -2.810  -0.110
O  -0.356  -1.192  -0.041
O  -2.683  -0.984  1.306
Ti  3.264  -0.178  -0.050
O  2.701  1.115  -1.423
O  4.926  -0.347  -0.083
Ti  -0.863  -1.159  -1.876
O  0.162  0.228  -2.580
O  -5.030  0.450  -0.037
Ti  1.046  1.545  -1.718
O  0.270  3.181  -1.283
O  -0.201  -2.924  -1.736
Ti  0.980  1.101  1.916
O  2.206  -1.953  -0.167
O  2.663  0.732  1.578
Ti  -1.064  -1.518  1.760
O  -0.313  -3.148  1.472
O  -2.505  -0.650  -1.727
Ti  -0.671  2.729  0.217
O  -2.306  1.967  0.037
   24
step   48
O  0.346  1.112  0.074
Ti  -3.367  0.262  -0.100
O  0.095  -0.316  2.645
O  0.131  2.813  1.844
Ti  0.637  -2.810  -0.109
O  -0.355  -1.193  -0.038
O  -2.688  -0.979  1.304
Ti  3.266  -0.177  -0.052
O  2.701  1.113  -1.421
O  4.932  -0.346  -0.086
Ti  -0.863  -1.158  -1.875
O  0.167  0.227  -2.575
O  -5.036  0.446  -0.039
Ti  1.044  1.548  -1.717
O  0.270  3.179  -1.288
O  -0.202  -2.922  -1.736
Ti  0.979  1.100  1.915
O  2.206  -1.950  -0.166
O  2.663  0.729  1.573
Ti  -1.062  -1.520  1.760
O  -0.311  -3.148  1.475
O  -2.505  -0.647  -1.724
Ti  -0.672  2.729  0.218