   21
step    0
Ti  -0.321  -3.665  -0.480
Ti  0.108  -1.640  1.508
Ti  -0.072  3.359  0.556
Ti  1.816  0.903  1.052
O  -1.339  -0.596  1.886
O  1.326  2.457  1.634
O  -0.160  4.925  0.832
O  1.614  -0.676  1.967
Ti  -1.676  0.681  0.640
Ti  -0.908  -1.132  -1.694
Ti  0.979  1.321  -1.586
O  -2.216  -0.157  -0.878
O  -1.732  2.396  0.930
O  -1.332  -2.820  -1.937
O  0.846  -4.617  -1.002
O  0.387  2.926  -1.323
O  2.508  1.032  -0.632
O  0.152  0.725  0.067
O  0.156  0.053  -2.627
O  0.261  -1.770  -0.364
O  -0.254  -3.359  1.460
   21
step    1
Ti  -0.321  -3.666  -0.480
Ti  0.107  -1.641  1.506
Ti  -0.067  3.355  0.556
Ti  1.820  0.901  1.052
O  -1.336  -0.598  1.892
O  1.326  2.454  1.636
O  -0.165  4.921  0.827
O  1.609  -0.672  1.962
Ti  -1.677  0.686  0.639
Ti  -0.910  -1.128  -1.695
Ti  0.980  1.320  -1.584
O  -2.217  -0.156  -0.882
O  -1.735  2.396  0.933
O  -1.334  -2.813  -1.936
O  0.853  -4.616  -1.000
O  0.386  2.920  -1.320
O  2.507  1.032  -0.632
O  0.154  0.725  0.065
O  0.152  0.055  -2.626
O  0.262  -1.771  -0.355
O  -0.259  -3.359  1.459
   21
step    2
Ti  -0.322  -3.667  -0.480
Ti  0.106  -1.642  1.503
Ti  -0.062  3.352  0.556
Ti  1.825  0.899  1.051
O  -1.334  -0.600  1.898
O  1.327  2.452  1.638
O  -0.171  4.919  0.823
O  1.605  -0.668  1.958
Ti  -1.678  0.691  0.637
Ti  -0.912  -1.125  -1.696
Ti  0.981  1.318  -1.583
O  -2.218  -0.154  -0.886
O  -1.738  2.396  0.936
O  -1.337  -2.807  -1.935
O  0.860  -4.615  -0.998
O  0.385  2.914  -1.318
O  2.505  1.033  -0.633
O  0.156  0.725  0.064
O  0.148  0.058  -2.625
O  0.264  -1.772  -0.347
O  -0.264  -3.359  1.458
   21
step    3
Ti  -0.323  -3.668  -0.480
Ti  0.105  -1.643  1.501
Ti  -0.058  3.348  0.556
Ti  1.829  0.897  1.050
O  -1.332  -0.602  1.904
O  1.327  2.451  1.641
O  -0.177  4.917  0.819
O  1.601  -0.665  1.955
Ti  -1.679  0.696  0.635
Ti  -0.915  -1.121  -1.698
Ti  0.982  1.316  -1.581
O  -2.219  -0.153  -0.891
O  -1.741  2.397  0.940
O  -1.340  -2.802  -1.934
O  0.867  -4.615  -0.996
O  0.384  2.909  -1.315
O  2.504  1.034  -0.633
O  0.157  0.725  0.062
O  0.144  0.061  -2.624
O  0.266  -1.773  -0.339
O  -0.269  -3.359  1.458
   21
step    4
Ti  -0.323  -3.669  -0.480
Ti  0.103  -1.644  1.500
Ti  -0.053  3.343  0.556
Ti  1.833  0.895  1.050
O  -1.331  -0.604  1.911
O  1.327  2.450  1.643
O  -0.182  4.916  0.815
O  1.598  -0.661  1.951
Ti  -1.679  0.700  0.634
Ti  -0.917  -1.118  -1.699
Ti  0.983  1.315  -1.580
O  -2.221  -0.151  -0.895
O  -1.744  2.399  0.943
O  -1.342  -2.797  -1.934
O  0.875  -4.615  -0.995
O  0.382  2.905  -1.312
O  2.504  1.034  -0.634
O  0.159  0.724  0.061
O  0.140  0.064  -2.623
O  0.268  -1.773  -0.332
O  -0.275  -3.361  1.458
   21
step    5
Ti  -0.324  -3.669  -0.479
Ti  0.102  -1.645  1.498
Ti  -0.048  3.339  0.556
Ti  1.838  0.893  1.049
O  -1.330  -0.605  1.917
O  1.327  2.449  1.646
O  -0.187  4.917  0.811
O  1.595  -0.658  1.948
Ti  -1.680  0.705  0.633
Ti  -0.919  -1.114  -1.700
Ti  0.984  1.313  -1.578
O  -2.223  -0.149  -0.899
O  -1.747  2.401  0.946
O  -1.346  -2.792  -1.934
O  0.883  -4.616  -0.994
O  0.381  2.901  -1.310
O  2.505  1.035  -0.635
O  0.160  0.723  0.060
O  0.136  0.066  -2.624
O  0.270  -1.774  -0.325
O  -0.280  -3.362  1.459
   21
step    6
Ti  -0.325  -3.670  -0.479
Ti  0.101  -1.646  1.496
Ti  -0.044  3.334  0.556
Ti  1.842  0.891  1.049
O  -1.329  -0.607  1.923
O  1.327  2.449  1.649
O  -0.193  4.918  0.807
O  1.593  -0.655  1.946
Ti  -1.681  0.709  0.631
Ti  -0.921  -1.111  -1.701
Ti  0.985  1.311  -1.577
O  -2.226  -0.147  -0.903
O  -1.750  2.404  0.949
O  -1.349  -2.789  -1.934
O  0.892  -4.617  -0.993
O  0.379  2.898  -1.308
O  2.506  1.035  -0.636
O  0.160  0.722  0.059
O  0.133  0.069  -2.624
O  0.273  -1.775  -0.319
O  -0.285  -3.365  1.459
   21
step    7
Ti  -0.326  -3.670  -0.479
Ti  0.099  -1.646  1.495
Ti  -0.039  3.330  0.556
Ti  1.846  0.890  1.049
O  -1.329  -0.607  1.929
O  1.327  2.448  1.652
O  -0.198  4.920  0.803
O  1.591  -0.651  1.943
Ti  -1.682  0.712  0.630
Ti  -0.923  -1.107  -1.702
Ti  0.986  1.309  -1.576
O  -2.229  -0.145  -0.907
O  -1.753  2.408  0.952
O  -1.352  -2.786  -1.935
O  0.900  -4.618  -0.992
O  0.376  2.896  -1.306
O  2.507  1.035  -0.638
O  0.161  0.721  0.058
O  0.129  0.072  -2.625
O  0.275  -1.776  -0.314
O  -0.290  -3.367  1.460
   21
step    8
Ti  -0.327  -3.671  -0.478
Ti  0.098  -1.647  1.493
Ti  -0.035  3.325  0.556
Ti  1.851  0.888  1.048
O  -1.329  -0.608  1.935
O  1.328  2.448  1.656
O  -0.203  4.922  0.800
O  1.589  -0.649  1.941
Ti  -1.682  0.716  0.629
Ti  -0.925  -1.104  -1.703
Ti  0.987  1.307  -1.575
O  -2.232  -0.143  -0.911
O  -1.756  2.412  0.955
O  -1.355  -2.783  -1.935
O  0.909  -4.619  -0.992
O  0.374  2.894  -1.304
O  2.510  1.034  -0.639
O  0.161  0.720  0.057
O  0.126  0.075  -2.626
O  0.277  -1.777  -0.310
O  -0.296  -3.371  1.461
   21
step    9
Ti  -0.328  -3.672  -0.478
Ti  0.096  -1.647  1.492
Ti  -0.031  3.321  0.556
Ti  1.855  0.886  1.048
O  -1.330  -0.608  1.941
O  1.328  2.448  1.660
O  -0.209  4.924  0.796
O  1.588  -0.646  1.940
Ti  -1.683  0.719  0.628
Ti  -0.926  -1.100  -1.703
Ti  0.988  1.305  -1.575
O  -2.236  -0.140  -0.914
O  -1.759  2.416  0.959
O  -1.358  -2.782  -1.936
O  0.917  -4.620  -0.991
O  0.371  2.893  -1.303
O  2.513  1.034  -0.641
O  0.161  0.719  0.056
O  0.123  0.077  -2.628
O  0.280  -1.778  -0.307
O  -0.301  -3.374  1.462
   21
step   10
Ti  -0.328  -3.672  -0.477
Ti  0.095  -1.648  1.492
Ti  -0.027  3.316  0.556
Ti  1.859  0.885  1.048
O  -1.331  -0.607  1.946
O  1.328  2.449  1.663
O  -0.214  4.926  0.793
O  1.587  -0.643  1.939
Ti  -1.684  0.722  0.627
Ti  -0.928  -1.096  -1.704
Ti  0.988  1.303  -1.574
O  -2.239  -0.137  -0.917
O  -1.762  2.420  0.962
O  -1.362  -2.780  -1.937
O  0.925  -4.621  -0.990
O  0.369  2.892  -1.301
O  2.516  1.033  -0.644
O  0.160  0.718  0.056
O  0.121  0.080  -2.630
O  0.283  -1.779  -0.305
O  -0.307  -3.378  1.463
   21
step   11
Ti  -0.328  -3.673  -0.477
Ti  0.093  -1.648  1.491
Ti  -0.023  3.312  0.556
Ti  1.863  0.884  1.048
O  -1.332  -0.606  1.950
O  1.329  2.449  1.667
O  -0.219  4.928  0.790
O  1.587  -0.641  1.938
Ti  -1.684  0.724  0.627
Ti  -0.930  -1.093  -1.704
Ti  0.989  1.301  -1.574
O  -2.243  -0.135  -0.920
O  -1.765  2.425  0.965
O  -1.365  -2.779  -1.938
O  0.932  -4.622  -0.988
O  0.366  2.893  -1.300
O  2.520  1.033  -0.646
O  0.159  0.716  0.056
O  0.118  0.082  -2.633
O  0.285  -1.780  -0.305
O  -0.312  -3.382  1.464
   21
step   12
Ti  -0.328  -3.674  -0.477
Ti  0.092  -1.649  1.491
Ti  -0.020  3.308  0.557
Ti  1.867  0.883  1.048
O  -1.333  -0.605  1.955
O  1.329  2.449  1.672
O  -0.225  4.930  0.786
O  1.587  -0.639  1.938
Ti  -1.685  0.726  0.626
Ti  -0.931  -1.090  -1.704
Ti  0.990  1.299  -1.573
O  -2.248  -0.132  -0.923
O  -1.768  2.430  0.968
O  -1.368  -2.779  -1.940
O  0.939  -4.622  -0.987
O  0.363  2.893  -1.299
O  2.525  1.032  -0.649
O  0.158  0.714  0.056
O  0.116  0.084  -2.636
O  0.288  -1.781  -0.306
O  -0.317  -3.387  1.465
   21
step   13
Ti  -0.328  -3.675  -0.476
Ti  0.090  -1.649  1.491
Ti  -0.017  3.304  0.557
Ti  1.872  0.882  1.048
O  -1.335  -0.603  1.958
O  1.330  2.449  1.676
O  -0.230  4.931  0.783
O  1.588  -0.637  1.938
Ti  -1.685  0.728  0.626
Ti  -0.933  -1.086  -1.705
Ti  0.991  1.297  -1.573
O  -2.253  -0.129  -0.926
O  -1.770  2.434  0.971
O  -1.370  -2.779  -1.941
O  0.945  -4.622  -0.985
O  0.360  2.894  -1.298
O  2.530  1.031  -0.652
O  0.157  0.713  0.056
O  0.114  0.086  -2.639
O  0.290  -1.782  -0.308
O  -0.323  -3.391  1.467
   21
step   14
Ti  -0.327  -3.676  -0.476
Ti  0.088  -1.650  1.491
Ti  -0.014  3.301  0.557
Ti  1.876  0.882  1.048
O  -1.337  -0.601  1.961
O  1.331  2.449  1.680
O  -0.235  4.932  0.779
O  1.589  -0.635  1.938
Ti  -1.686  0.729  0.626
Ti  -0.934  -1.083  -1.705
Ti  0.991  1.295  -1.574
O  -2.258  -0.125  -0.928
O  -1.773  2.439  0.974
O  -1.373  -2.779  -1.942
O  0.950  -4.621  -0.983
O  0.357  2.896  -1.298
O  2.536  1.030  -0.655
O  0.155  0.711  0.056
O  0.112  0.088  -2.643
O  0.293  -1.783  -0.311
O  -0.328  -3.396  1.468
   21
step   15
Ti  -0.326  -3.677  -0.476
Ti  0.087  -1.650  1.491
Ti  -0.012  3.299  0.558
Ti  1.880  0.881  1.048
O  -1.339  -0.598  1.963
O  1.332  2.449  1.685
O  -0.240  4.932  0.775
O  1.590  -0.633  1.939
Ti  -1.687  0.730  0.626
Ti  -0.936  -1.081  -1.704
Ti  0.992  1.293  -1.574
O  -2.263  -0.122  -0.929
O  -1.776  2.443  0.977
O  -1.375  -2.780  -1.943
O  0.955  -4.621  -0.981
O  0.355  2.897  -1.297
O  2.542  1.029  -0.658
O  0.153  0.709  0.057
O  0.110  0.090  -2.647
O  0.295  -1.784  -0.316
O  -0.333  -3.400  1.469
   21
step   16
Ti  -0.324  -3.678  -0.476
Ti  0.085  -1.651  1.492
Ti  -0.010  3.296  0.559
Ti  1.883  0.881  1.048
O  -1.341  -0.595  1.964
O  1.333  2.448  1.689
O  -0.245  4.931  0.772
O  1.592  -0.632  1.941
Ti  -1.687  0.731  0.626
Ti  -0.937  -1.078  -1.704
Ti  0.992  1.292  -1.574
O  -2.268  -0.118  -0.931
O  -1.779  2.447  0.980
O  -1.377  -2.780  -1.945
O  0.959  -4.619  -0.979
O  0.352  2.899  -1.297
O  2.548  1.028  -0.661
O  0.151  0.707  0.058
O  0.109  0.092  -2.652
O  0.297  -1.785  -0.321
O  -0.338  -3.405  1.471
   21
step   17
Ti  -0.322  -3.679  -0.476
Ti  0.083  -1.651  1.493
Ti  -0.008  3.294  0.560
Ti  1.887  0.882  1.048
O  -1.343  -0.592  1.965
O  1.334  2.447  1.693
O  -0.250  4.929  0.768
O  1.594  -0.631  1.943
Ti  -1.688  0.732  0.627
Ti  -0.938  -1.075  -1.704
Ti  0.993  1.290  -1.575
O  -2.274  -0.115  -0.932
O  -1.782  2.451  0.983
O  -1.379  -2.781  -1.946
O  0.962  -4.617  -0.976
O  0.349  2.901  -1.298
O  2.555  1.026  -0.665
O  0.149  0.705  0.058
O  0.108  0.094  -2.657
O  0.300  -1.787  -0.327
O  -0.342  -3.409  1.472
   21
step   18
Ti  -0.320  -3.681  -0.476
Ti  0.081  -1.652  1.494
Ti  -0.007  3.293  0.561
Ti  1.891  0.883  1.048
O  -1.345  -0.588  1.964
O  1.336  2.446  1.697
O  -0.254  4.927  0.764
O  1.596  -0.631  1.945
Ti  -1.689  0.732  0.628
Ti  -0.939  -1.073  -1.703
Ti  0.993  1.289  -1.576
O  -2.279  -0.111  -0.933
O  -1.785  2.454  0.985
O  -1.380  -2.782  -1.947
O  0.964  -4.615  -0.973
O  0.346  2.903  -1.298
O  2.562  1.025  -0.668
O  0.147  0.703  0.059
O  0.107  0.095  -2.662
O  0.301  -1.788  -0.333
O  -0.346  -3.414  1.473
   21
step   19
Ti  -0.317  -3.683  -0.476
Ti  0.079  -1.652  1.495
Ti  -0.006  3.292  0.562
Ti  1.894  0.883  1.049
O  -1.348  -0.584  1.964
O  1.337  2.445  1.701
O  -0.258  4.923  0.760
O  1.598  -0.630  1.947
Ti  -1.690  0.732  0.628
Ti  -0.941  -1.071  -1.703
Ti  0.993  1.288  -1.577
O  -2.285  -0.106  -0.933
O  -1.787  2.456  0.988
O  -1.381  -2.783  -1.947
O  0.966  -4.613  -0.970
O  0.344  2.904  -1.299
O  2.569  1.023  -0.671
O  0.145  0.701  0.060
O  0.107  0.097  -2.668
O  0.303  -1.789  -0.340
O  -0.350  -3.418  1.474
   21
step   20
Ti  -0.314  -3.684  -0.476
Ti  0.077  -1.653  1.496
Ti  -0.006  3.291  0.563
Ti  1.898  0.885  1.049
O  -1.350  -0.580  1.962
O  1.339  2.443  1.705
O  -0.262  4.919  0.756
O  1.601  -0.630  1.949
Ti  -1.691  0.733  0.630
Ti  -0.942  -1.069  -1.702
Ti  0.993  1.287  -1.577
O  -2.290  -0.102  -0.934
O  -1.789  2.458  0.990
O  -1.381  -2.784  -1.948
O  0.968  -4.610  -0.967
O  0.342  2.906  -1.300
O  2.576  1.022  -0.674
O  0.143  0.699  0.061
O  0.107  0.099  -2.674
O  0.305  -1.791  -0.348
O  -0.353  -3.421  1.475
   21
step   21
Ti  -0.311  -3.686  -0.476
Ti  0.076  -1.653  1.497
Ti  -0.006  3.291  0.564
Ti  1.901  0.886  1.049
O  -1.352  -0.576  1.960
O  1.341  2.441  1.708
O  -0.266  4.914  0.751
O  1.603  -0.631  1.952
Ti  -1.692  0.733  0.631
Ti  -0.943  -1.067  -1.702
Ti  0.993  1.287  -1.578
O  -2.296  -0.097  -0.933
O  -1.792  2.459  0.992
O  -1.382  -2.784  -1.949
O  0.969  -4.606  -0.964
O  0.340  2.907  -1.302
O  2.582  1.020  -0.677
O  0.141  0.698  0.063
O  0.106  0.100  -2.680
O  0.306  -1.792  -0.356
O  -0.356  -3.424  1.476
   21
step   22
Ti  -0.308  -3.688  -0.477
Ti  0.074  -1.654  1.499
Ti  -0.006  3.292  0.566
Ti  1.905  0.888  1.050
O  -1.353  -0.572  1.957
O  1.343  2.438  1.712
O  -0.269  4.909  0.747
O  1.606  -0.631  1.955
Ti  -1.693  0.732  0.632
Ti  -0.944  -1.066  -1.701
Ti  0.993  1.286  -1.580
O  -2.301  -0.093  -0.933
O  -1.794  2.459  0.994
O  -1.381  -2.785  -1.949
O  0.969  -4.603  -0.960
O  0.338  2.909  -1.303
O  2.589  1.018  -0.680
O  0.140  0.696  0.064
O  0.107  0.102  -2.685
O  0.307  -1.793  -0.363
O  -0.359  -3.427  1.477
   21
step   23
Ti  -0.304  -3.690  -0.477
Ti  0.072  -1.655  1.500
Ti  -0.007  3.292  0.567
Ti  1.908  0.890  1.050
O  -1.355  -0.568  1.954
O  1.346  2.436  1.715
O  -0.272  4.903  0.743
O  1.609  -0.632  1.958
Ti  -1.694  0.732  0.634
Ti  -0.945  -1.065  -1.700
Ti  0.992  1.286  -1.581
O  -2.306  -0.088  -0.932
O  -1.795  2.459  0.996
O  -1.381  -2.786  -1.949
O  0.969  -4.599  -0.956
O  0.336  2.910  -1.305
O  2.595  1.016  -0.683
O  0.138  0.695  0.065
O  0.107  0.103  -2.691
O  0.307  -1.795  -0.371
O  -0.362  -3.429  1.478
   21
step   24
Ti  -0.301  -3.691  -0.478
Ti  0.070  -1.655  1.502
Ti  -0.008  3.293  0.569
Ti  1.911  0.892  1.050
O  -1.357  -0.564  1.950
O  1.348  2.433  1.718
O  -0.275  4.897  0.739
O  1.612  -0.634  1.961
Ti  -1.695  0.732  0.635
Ti  -0.947  -1.064  -1.699
Ti  0.992  1.286  -1.582
O  -2.310  -0.083  -0.931
O  -1.797  2.459  0.998
O  -1.380  -2.786  -1.949
O  0.970  -4.596  -0.952
O  0.334  2.910  -1.307
O  2.601  1.014  -0.685
O  0.138  0.694  0.065
O  0.107  0.105  -2.697
O  0.308  -1.796  -0.379
O  -0.364  -3.431  1.478
   21
step   25
Ti  -0.297  -3.693  -0.479
Ti  0.068  -1.656  1.503
Ti  -0.010  3.294  0.571
Ti  1.914  0.894  1.050
O  -1.358  -0.560  1.946
O  1.351  2.430  1.721
O  -0.278  4.891  0.735
O  1.615  -0.636  1.965
Ti  -1.696  0.731  0.637
Ti  -0.948  -1.063  -1.698
Ti  0.992  1.286  -1.584
O  -2.314  -0.078  -0.929
O  -1.798  2.457  0.999
O  -1.379  -2.786  -1.949
O  0.970  -4.592  -0.949
O  0.333  2.911  -1.309
O  2.606  1.012  -0.688
O  0.137  0.693  0.066
O  0.108  0.107  -2.702
O  0.308  -1.798  -0.387
O  -0.366  -3.431  1.479
   21
step   26
Ti  -0.294  -3.694  -0.480
Ti  0.066  -1.657  1.505
Ti  -0.011  3.295  0.573
Ti  1.917  0.896  1.051
O  -1.359  -0.556  1.941
O  1.354  2.427  1.724
O  -0.280  4.884  0.731
O  1.618  -0.638  1.968
Ti  -1.698  0.731  0.639
Ti  -0.949  -1.062  -1.697
Ti  0.991  1.286  -1.585
O  -2.318  -0.074  -0.927
O  -1.799  2.456  1.000
O  -1.378  -2.786  -1.949
O  0.970  -4.589  -0.945
O  0.332  2.911  -1.312
O  2.610  1.011  -0.690
O  0.137  0.692  0.067
O  0.109  0.108  -2.708
O  0.308  -1.799  -0.395
O  -0.368  -3.431  1.479
   21
step   27
Ti  -0.290  -3.696  -0.481
Ti  0.064  -1.658  1.506
Ti  -0.013  3.296  0.575
Ti  1.920  0.898  1.051
O  -1.361  -0.552  1.936
O  1.356  2.423  1.727
O  -0.282  4.878  0.727
O  1.620  -0.641  1.971
Ti  -1.699  0.730  0.641
Ti  -0.951  -1.062  -1.696
Ti  0.991  1.286  -1.587
O  -2.321  -0.069  -0.925
O  -1.799  2.453  1.001
O  -1.376  -2.786  -1.948
O  0.970  -4.586  -0.941
O  0.332  2.910  -1.314
O  2.615  1.009  -0.691
O  0.137  0.691  0.067
O  0.110  0.110  -2.712
O  0.307  -1.800  -0.402
O  -0.370  -3.430  1.479
   21
step   28
Ti  -0.287  -3.697  -0.482
Ti  0.062  -1.659  1.507
Ti  -0.016  3.297  0.577
Ti  1.923  0.900  1.051
O  -1.362  -0.548  1.931
O  1.359  2.420  1.730
O  -0.284  4.872  0.723
O  1.623  -0.644  1.974
Ti  -1.701  0.730  0.643
Ti  -0.952  -1.061  -1.695
Ti  0.990  1.287  -1.588
O  -2.324  -0.065  -0.923
O  -1.799  2.451  1.002
O  -1.374  -2.785  -1.947
O  0.971  -4.584  -0.938
O  0.331  2.910  -1.317
O  2.618  1.007  -0.693
O  0.138  0.691  0.068
O  0.110  0.112  -2.717
O  0.307  -1.802  -0.409
O  -0.371  -3.429  1.479
   21
step   29
Ti  -0.284  -3.698  -0.483
Ti  0.060  -1.659  1.509
Ti  -0.018  3.298  0.578
Ti  1.925  0.902  1.051
O  -1.363  -0.545  1.926
O  1.362  2.417  1.732
O  -0.286  4.866  0.719
O  1.626  -0.647  1.978
Ti  -1.703  0.729  0.645
Ti  -0.954  -1.061  -1.694
Ti  0.989  1.287  -1.590
O  -2.327  -0.061  -0.920
O  -1.799  2.448  1.003
O  -1.373  -2.785  -1.946
O  0.972  -4.581  -0.935
O  0.331  2.909  -1.319
O  2.622  1.005  -0.694
O  0.139  0.690  0.068
O  0.111  0.113  -2.722
O  0.306  -1.803  -0.415
O  -0.372  -3.427  1.479
   21
step   30
Ti  -0.281  -3.699  -0.484
Ti  0.058  -1.660  1.510
Ti  -0.021  3.299  0.580
Ti  1.928  0.904  1.051
O  -1.363  -0.541  1.921
O  1.366  2.414  1.735
O  -0.288  4.861  0.716
O  1.628  -0.651  1.981
Ti  -1.704  0.729  0.647
Ti  -0.955  -1.061  -1.694
Ti  0.989  1.288  -1.592
O  -2.329  -0.057  -0.918
O  -1.798  2.444  1.003
O  -1.370  -2.784  -1.945
O  0.973  -4.579  -0.932
O  0.331  2.908  -1.322
O  2.624  1.004  -0.695
O  0.140  0.690  0.068
O  0.112  0.115  -2.726
O  0.304  -1.804  -0.421
O  -0.373  -3.424  1.478
   21
step   31
Ti  -0.279  -3.699  -0.485
Ti  0.057  -1.661  1.511
Ti  -0.024  3.300  0.582
Ti  1.931  0.906  1.051
O  -1.364  -0.539  1.916
O  1.369  2.411  1.737
O  -0.289  4.857  0.713
O  1.630  -0.655  1.984
Ti  -1.706  0.728  0.648
Ti  -0.957  -1.061  -1.693
Ti  0.988  1.289  -1.593
O  -2.331  -0.053  -0.915
O  -1.797  2.441  1.004
O  -1.368  -2.782  -1.944
O  0.975  -4.578  -0.929
O  0.332  2.906  -1.325
O  2.626  1.002  -0.696
O  0.142  0.691  0.068
O  0.113  0.116  -2.730
O  0.303  -1.805  -0.426
O  -0.374  -3.420  1.478
   21
step   32
Ti  -0.277  -3.699  -0.486
Ti  0.055  -1.661  1.512
Ti  -0.027  3.300  0.584
Ti  1.934  0.908  1.051
O  -1.365  -0.536  1.912
O  1.373  2.408  1.739
O  -0.290  4.854  0.710
O  1.632  -0.659  1.987
Ti  -1.708  0.728  0.650
Ti  -0.959  -1.061  -1.692
Ti  0.988  1.290  -1.595
O  -2.332  -0.049  -0.912
O  -1.796  2.437  1.004
O  -1.366  -2.781  -1.943
O  0.978  -4.577  -0.926
O  0.333  2.905  -1.327
O  2.628  1.001  -0.696
O  0.145  0.691  0.067
O  0.114  0.118  -2.733
O  0.302  -1.805  -0.430
O  -0.374  -3.416  1.477
   21
step   33
Ti  -0.275  -3.699  -0.487
Ti  0.054  -1.662  1.513
Ti  -0.030  3.299  0.586
Ti  1.936  0.909  1.051
O  -1.365  -0.534  1.907
O  1.376  2.406  1.741
O  -0.292  4.852  0.707
O  1.634  -0.664  1.990
Ti  -1.710  0.727  0.652
Ti  -0.960  -1.061  -1.691
Ti  0.987  1.290  -1.597
O  -2.333  -0.046  -0.909
O  -1.794  2.434  1.004
O  -1.364  -2.779  -1.942
O  0.981  -4.577  -0.924
O  0.334  2.903  -1.330
O  2.628  1.000  -0.696
O  0.147  0.692  0.067
O  0.114  0.119  -2.736
O  0.300  -1.806  -0.433
O  -0.374  -3.411  1.476
   21
step   34
Ti  -0.274  -3.699  -0.488
Ti  0.052  -1.662  1.514
Ti  -0.033  3.299  0.587
Ti  1.939  0.911  1.050
O  -1.366  -0.533  1.902
O  1.380  2.403  1.743
O  -0.293  4.852  0.705
O  1.636  -0.669  1.993
Ti  -1.712  0.726  0.654
Ti  -0.962  -1.061  -1.690
Ti  0.986  1.291  -1.599
O  -2.334  -0.042  -0.906
O  -1.792  2.430  1.004
O  -1.361  -2.778  -1.941
O  0.985  -4.578  -0.922
O  0.336  2.901  -1.332
O  2.628  0.999  -0.696
O  0.150  0.693  0.066
O  0.114  0.120  -2.739
O  0.298  -1.807  -0.436
O  -0.374  -3.406  1.475
   21
step   35
Ti  -0.273  -3.698  -0.490
Ti  0.051  -1.663  1.514
Ti  -0.036  3.298  0.589
Ti  1.941  0.911  1.050
O  -1.366  -0.532  1.897
O  1.383  2.401  1.744
O  -0.294  4.852  0.703
O  1.637  -0.675  1.995
Ti  -1.713  0.726  0.655
Ti  -0.964  -1.062  -1.689
Ti  0.986  1.292  -1.601
O  -2.334  -0.039  -0.903
O  -1.790  2.427  1.004
O  -1.359  -2.776  -1.939
O  0.990  -4.579  -0.920
O  0.337  2.899  -1.334
O  2.628  0.998  -0.696
O  0.153  0.694  0.065
O  0.115  0.121  -2.741
O  0.297  -1.807  -0.437
O  -0.374  -3.400  1.474
   21
step   36
Ti  -0.272  -3.697  -0.491
Ti  0.050  -1.663  1.515
Ti  -0.039  3.296  0.590
Ti  1.943  0.912  1.050
O  -1.366  -0.532  1.893
O  1.387  2.399  1.745
O  -0.295  4.854  0.701
O  1.638  -0.680  1.998
Ti  -1.715  0.725  0.656
Ti  -0.965  -1.062  -1.688
Ti  0.985  1.293  -1.602
O  -2.334  -0.036  -0.900
O  -1.787  2.425  1.004
O  -1.357  -2.774  -1.938
O  0.995  -4.580  -0.919
O  0.339  2.897  -1.336
O  2.627  0.997  -0.695
O  0.156  0.695  0.065
O  0.115  0.122  -2.743
O  0.295  -1.807  -0.439
O  -0.374  -3.394  1.473
   21
step   37
Ti  -0.272  -3.696  -0.492
Ti  0.049  -1.662  1.515
Ti  -0.042  3.294  0.592
Ti  1.946  0.912  1.050
O  -1.367  -0.532  1.889
O  1.391  2.397  1.746
O  -0.295  4.857  0.699
O  1.639  -0.685  2.000
Ti  -1.717  0.725  0.658
Ti  -0.967  -1.062  -1.688
Ti  0.985  1.293  -1.604
O  -2.333  -0.033  -0.897
O  -1.784  2.422  1.004
O  -1.355  -2.772  -1.936
O  1.001  -4.582  -0.917
O  0.341  2.895  -1.338
O  2.625  0.997  -0.694
O  0.160  0.696  0.064
O  0.114  0.122  -2.744
O  0.293  -1.807  -0.439
O  -0.373  -3.388  1.472
   21
step   38
Ti  -0.272  -3.694  -0.493
Ti  0.048  -1.662  1.516
Ti  -0.045  3.292  0.593
Ti  1.948  0.912  1.049
O  -1.367  -0.533  1.886
O  1.395  2.396  1.747
O  -0.296  4.861  0.698
O  1.639  -0.691  2.001
Ti  -1.719  0.724  0.659
Ti  -0.969  -1.062  -1.687
Ti  0.985  1.294  -1.606
O  -2.332  -0.030  -0.895
O  -1.781  2.421  1.003
O  -1.353  -2.770  -1.935
O  1.007  -4.584  -0.916
O  0.344  2.893  -1.339
O  2.622  0.997  -0.692
O  0.163  0.698  0.062
O  0.114  0.122  -2.745
O  0.291  -1.807  -0.438
O  -0.373  -3.382  1.470
   21
step   39
Ti  -0.272  -3.693  -0.494
Ti  0.048  -1.661  1.516
Ti  -0.049  3.289  0.594
Ti  1.950  0.912  1.049
O  -1.368  -0.535  1.883
O  1.398  2.395  1.748
O  -0.296  4.866  0.697
O  1.639  -0.696  2.003
Ti  -1.721  0.724  0.659
Ti  -0.970  -1.062  -1.686
Ti  0.985  1.294  -1.608
O  -2.331  -0.028  -0.892
O  -1.778  2.419  1.003
O  -1.351  -2.769  -1.934
O  1.013  -4.587  -0.915
O  0.346  2.892  -1.341
O  2.619  0.996  -0.691
O  0.167  0.700  0.061
O  0.113  0.122  -2.746
O  0.289  -1.807  -0.437
O  -0.372  -3.376  1.469
   21
step   40
Ti  -0.273  -3.691  -0.495
Ti  0.047  -1.661  1.516
Ti  -0.052  3.286  0.595
Ti  1.952  0.911  1.049
O  -1.368  -0.537  1.880
O  1.402  2.394  1.748
O  -0.297  4.871  0.696
O  1.639  -0.702  2.004
Ti  -1.723  0.723  0.660
Ti  -0.971  -1.062  -1.685
Ti  0.985  1.295  -1.610
O  -2.329  -0.026  -0.890
O  -1.775  2.419  1.003
O  -1.349  -2.767  -1.933
O  1.019  -4.590  -0.914
O  0.348  2.890  -1.342
O  2.616  0.997  -0.689
O  0.170  0.702  0.060
O  0.112  0.121  -2.746
O  0.288  -1.807  -0.435
O  -0.371  -3.370  1.467
   21
step   41
Ti  -0.273  -3.689  -0.496
Ti  0.047  -1.659  1.516
Ti  -0.055  3.283  0.596
Ti  1.954  0.910  1.048
O  -1.369  -0.539  1.878
O  1.405  2.393  1.748
O  -0.297  4.877  0.696
O  1.639  -0.707  2.004
Ti  -1.725  0.722  0.661
Ti  -0.973  -1.062  -1.685
Ti  0.985  1.295  -1.611
O  -2.327  -0.024  -0.888
O  -1.771  2.419  1.003
O  -1.348  -2.766  -1.931
O  1.025  -4.592  -0.913
O  0.351  2.889  -1.342
O  2.612  0.997  -0.687
O  0.174  0.704  0.059
O  0.110  0.121  -2.745
O  0.286  -1.806  -0.433
O  -0.371  -3.365  1.465
   21
step   42
Ti  -0.273  -3.687  -0.497
Ti  0.047  -1.658  1.516
Ti  -0.058  3.280  0.597
Ti  1.956  0.908  1.048
O  -1.370  -0.542  1.877
O  1.409  2.393  1.748
O  -0.297  4.883  0.696
O  1.638  -0.712  2.004
Ti  -1.727  0.721  0.661
Ti  -0.974  -1.062  -1.684
Ti  0.985  1.296  -1.613
O  -2.325  -0.023  -0.887
O  -1.768  2.420  1.003
O  -1.346  -2.765  -1.930
O  1.030  -4.595  -0.912
O  0.353  2.888  -1.343
O  2.608  0.997  -0.685
O  0.177  0.706  0.058
O  0.109  0.119  -2.744
O  0.284  -1.805  -0.430
O  -0.370  -3.359  1.463
   21
step   43
Ti  -0.274  -3.685  -0.499
Ti  0.048  -1.656  1.516
Ti  -0.062  3.277  0.598
Ti  1.957  0.906  1.048
O  -1.371  -0.546  1.876
O  1.412  2.394  1.747
O  -0.296  4.888  0.695
O  1.637  -0.718  2.004
Ti  -1.728  0.720  0.661
Ti  -0.975  -1.061  -1.684
Ti  0.986  1.296  -1.615
O  -2.322  -0.022  -0.885
O  -1.764  2.421  1.003
O  -1.345  -2.764  -1.930
O  1.036  -4.598  -0.911
O  0.355  2.887  -1.343
O  2.604  0.998  -0.683
O  0.180  0.708  0.057
O  0.107  0.118  -2.743
O  0.283  -1.804  -0.426
O  -0.369  -3.354  1.460
   21
step   44
Ti  -0.274  -3.683  -0.500
Ti  0.048  -1.654  1.516
Ti  -0.065  3.274  0.599
Ti  1.959  0.904  1.048
O  -1.372  -0.549  1.876
O  1.414  2.395  1.747
O  -0.296  4.893  0.695
O  1.635  -0.723  2.003
Ti  -1.730  0.719  0.661
Ti  -0.975  -1.061  -1.684
Ti  0.986  1.296  -1.616
O  -2.319  -0.021  -0.884
O  -1.760  2.423  1.003
O  -1.345  -2.764  -1.929
O  1.040  -4.600  -0.910
O  0.357  2.886  -1.343
O  2.599  0.998  -0.681
O  0.183  0.710  0.056
O  0.105  0.116  -2.741
O  0.281  -1.802  -0.422
O  -0.368  -3.348  1.458
   21
step   45
Ti  -0.274  -3.681  -0.502
Ti  0.049  -1.652  1.515
Ti  -0.068  3.272  0.600
Ti  1.960  0.901  1.048
O  -1.374  -0.553  1.876
O  1.417  2.396  1.746
O  -0.295  4.898  0.696
O  1.634  -0.728  2.002
Ti  -1.732  0.718  0.661
Ti  -0.976  -1.061  -1.683
Ti  0.987  1.296  -1.618
O  -2.316  -0.021  -0.884
O  -1.756  2.425  1.003
O  -1.344  -2.764  -1.929
O  1.044  -4.603  -0.908
O  0.359  2.886  -1.342
O  2.594  0.999  -0.678
O  0.186  0.712  0.056
O  0.102  0.114  -2.739
O  0.280  -1.801  -0.417
O  -0.367  -3.344  1.455
   21
step   46
Ti  -0.273  -3.679  -0.503
Ti  0.050  -1.649  1.515
Ti  -0.072  3.269  0.600
Ti  1.961  0.898  1.048
O  -1.375  -0.558  1.876
O  1.419  2.397  1.744
O  -0.295  4.903  0.696
O  1.632  -0.733  2.001
Ti  -1.733  0.717  0.660
Ti  -0.976  -1.060  -1.683
Ti  0.987  1.296  -1.619
O  -2.313  -0.021  -0.884
O  -1.753  2.427  1.003
O  -1.344  -2.764  -1.928
O  1.047  -4.605  -0.906
O  0.360  2.886  -1.341
O  2.589  1.001  -0.676
O  0.189  0.715  0.055
O  0.099  0.112  -2.736
O  0.279  -1.799  -0.412
O  -0.366  -3.340  1.452
   21
step   47
Ti  -0.273  -3.677  -0.504
Ti  0.051  -1.646  1.515
Ti  -0.075  3.267  0.601
Ti  1.962  0.895  1.048
O  -1.377  -0.562  1.877
O  1.421  2.399  1.743
O  -0.294  4.906  0.696
O  1.630  -0.737  1.999
Ti  -1.735  0.716  0.660
Ti  -0.976  -1.059  -1.683
Ti  0.988  1.296  -1.621
O  -2.309  -0.022  -0.884
O  -1.749  2.430  1.003
O  -1.344  -2.765  -1.928
O  1.050  -4.606  -0.905
O  0.362  2.887  -1.340
O  2.584  1.002  -0.674
O  0.191  0.717  0.055
O  0.096  0.109  -2.733
O  0.278  -1.796  -0.406
O  -0.365  -3.336  1.450
   21
step   48
Ti  -0.272  -3.675  -0.506
Ti  0.053  -1.643  1.514
Ti  -0.079  3.265  0.601
Ti  1.962  0.891  1.049
O  -1.379  -0.567  1.879
O  1.422  2.401  1.741
O  -0.292  4.909  0.697
O  1.627  -0.742  1.997
Ti  -1.736  0.715  0.659
Ti  -0.976  -1.059  -1.683
Ti  0.989  1.296  -1.622
O  -2.306  -0.023  -0.884
O  -1.745  2.434  1.003
O  -1.344  -2.766  -1.928
O  1.051  -4.607  -0.903
O  0.363  2.888  -1.339
O  2.579  1.003  -0.671
O  0.193  0.719  0.055
O  0.093  0.106  -2.729
O  0.277  -1.794  -0.400
O  -0.364  -3.333  1.447
   21
step   49
Ti  -0.271  -3.674  -0.508
Ti  0.055  -1.640  1.513
Ti  -0.082  3.264  0.602
Ti  1.962  0.888  1.049
O  -1.382  -0.571  1.880
O  1.424  2.402  1.738
O  -0.291  4.911  0.697
O  1.625  -0.746  1.994
Ti  -1.737  0.713  0.659
Ti  -0.976  -1.058  -1.683
Ti  0.990  1.296  -1.623
O  -2.302  -0.024  -0.885
O  -1.742  2.437  1.003
O  -1.344  -2.767  -1.929
O  1.052  -4.608  -0.901
O  0.364  2.889  -1.338
O  2.574  1.005  -0.669
O  0.195  0.721  0.055
O  0.090  0.103  -2.726
O  0.276  -1.791  -0.394
O  -0.363  -3.331  1.444
   21
step   50
Ti  -0.269  -3.672  -0.509
Ti  0.057  -1.636  1.512
Ti  -0.085  3.263  0.602
Ti  1.962  0.884  1.050
O  -1.384  -0.576  1.882
O  1.425  2.404  1.735
O  -0.289  4.913  0.698
O  1.622  -0.749  1.991
Ti  -1.738  0.712  0.658
Ti  -0.975  -1.057  -1.683
Ti  0.991  1.296  -1.624
O  -2.298  -0.025  -0.886
O  -1.738  2.440  1.004
O  -1.345  -2.769  -1.929
O  1.051  -4.609  -0.898
O  0.365  2.890  -1.336
O  2.569  1.007  -0.667
O  0.197  0.723  0.055
O  0.086  0.099  -2.722
O  0.275  -1.788  -0.388
O  -0.362  -3.330  1.441
   21
step   51
Ti  -0.267  -3.670  -0.511
Ti  0.059  -1.632  1.512
Ti  -0.089  3.262  0.603
Ti  1.962  0.880  1.051
O  -1.387  -0.581  1.885
O  1.425  2.406  1.732
O  -0.287  4.913  0.698
O  1.620  -0.752  1.989
Ti  -1.739  0.711  0.658
Ti  -0.975  -1.057  -1.683
Ti  0.992  1.296  -1.626
O  -2.295  -0.027  -0.888
O  -1.735  2.443  1.004
O  -1.346  -2.771  -1.930
O  1.050  -4.609  -0.896
O  0.367  2.891  -1.334
O  2.564  1.009  -0.665
O  0.198  0.725  0.055
O  0.082  0.096  -2.718
O  0.274  -1.785  -0.381
O  -0.361  -3.329  1.438
   21
step   52
Ti  -0.266  -3.669  -0.512
Ti  0.061  -1.628  1.511
Ti  -0.092  3.262  0.603
Ti  1.962  0.876  1.052
O  -1.391  -0.586  1.887
O  1.426  2.408  1.729
O  -0.285  4.912  0.699
O  1.618  -0.755  1.985
Ti  -1.740  0.709  0.657
Ti  -0.974  -1.056  -1.683
Ti  0.993  1.296  -1.627
O  -2.291  -0.029  -0.889
O  -1.733  2.446  1.004
O  -1.347  -2.773  -1.931
O  1.049  -4.608  -0.893
O  0.368  2.893  -1.332
O  2.559  1.011  -0.663
O  0.199  0.727  0.056
O  0.079  0.092  -2.713
O  0.273  -1.782  -0.375
O  -0.360  -3.329  1.435
   21
step   53
Ti  -0.263  -3.667  -0.514
Ti  0.064  -1.624  1.510
Ti  -0.094  3.262  0.603
Ti  1.961  0.872  1.053
O  -1.394  -0.590  1.890
O  1.426  2.410  1.725
O  -0.282  4.911  0.700
O  1.615  -0.757  1.982
Ti  -1.740  0.708  0.656
Ti  -0.973  -1.056  -1.683
Ti  0.994  1.296  -1.628
O  -2.288  -0.031  -0.891
O  -1.730  2.448  1.004
O  -1.348  -2.775  -1.932
O  1.046  -4.607  -0.891
O  0.369  2.894  -1.330
O  2.555  1.013  -0.661
O  0.199  0.728  0.057
O  0.075  0.088  -2.709
O  0.272  -1.778  -0.369
O  -0.359  -3.329  1.433
   21
step   54
Ti  -0.261  -3.665  -0.515
Ti  0.067  -1.620  1.509
Ti  -0.097  3.263  0.603
Ti  1.960  0.868  1.054
O  -1.398  -0.594  1.892
O  1.426  2.411  1.720
O  -0.280  4.909  0.700
O  1.613  -0.758  1.979
Ti  -1.741  0.706  0.656
Ti  -0.971  -1.055  -1.683
Ti  0.995  1.296  -1.629
O  -2.285  -0.033  -0.894
O  -1.729  2.450  1.005
O  -1.349  -2.777  -1.934
O  1.043  -4.606  -0.888
O  0.370  2.896  -1.328
O  2.551  1.015  -0.659
O  0.199  0.730  0.058
O  0.071  0.084  -2.704
O  0.271  -1.774  -0.363
O  -0.358  -3.330  1.430
   21
step   55
Ti  -0.259  -3.664  -0.517
Ti  0.069  -1.616  1.507
Ti  -0.100  3.264  0.603
Ti  1.959  0.864  1.055
O  -1.402  -0.598  1.895
O  1.426  2.412  1.716
O  -0.277  4.906  0.701
O  1.611  -0.759  1.976
Ti  -1.741  0.705  0.656
Ti  -0.970  -1.055  -1.683
Ti  0.995  1.297  -1.630
O  -2.282  -0.036  -0.896
O  -1.728  2.452  1.005
O  -1.350  -2.779  -1.935
O  1.039  -4.605  -0.886
O  0.372  2.897  -1.325
O  2.547  1.017  -0.657
O  0.198  0.731  0.059
O  0.068  0.081  -2.699
O  0.270  -1.770  -0.358