    6
step    0
Ti  1.234  -0.008  -0.490
O  2.478  -0.005  0.560
O  -0.038  1.329  -0.017
Ti  -1.212  -0.001  0.483
O  -2.530  0.016  -0.505
O  0.023  -1.315  -0.016
    6
step    1
Ti  1.236  -0.010  -0.488
O  2.481  -0.005  0.559
O  -0.041  1.327  -0.016
Ti  -1.212  0.002  0.481
O  -2.533  0.015  -0.506
O  0.021  -1.313  -0.017
    6
step    2
Ti  1.237  -0.011  -0.487
O  2.483  -0.005  0.558
O  -0.044  1.324  -0.014
Ti  -1.212  0.004  0.480
O  -2.535  0.013  -0.506
O  0.019  -1.310  -0.018
    6
step    3
Ti  1.239  -0.013  -0.485
O  2.485  -0.005  0.557
O  -0.046  1.320  -0.013
Ti  -1.212  0.007  0.479
O  -2.536  0.011  -0.506
O  0.017  -1.308  -0.019
    6
step    4
Ti  1.240  -0.015  -0.484
O  2.486  -0.005  0.557
O  -0.048  1.316  -0.011
Ti  -1.212  0.009  0.477
O  -2.536  0.009  -0.506
O  0.015  -1.305  -0.020
    6
step    5
Ti  1.241  -0.016  -0.483
O  2.487  -0.004  0.556
O  -0.049  1.311  -0.010
Ti  -1.213  0.012  0.476
O  -2.534  0.007  -0.505
O  0.013  -1.301  -0.020
    6
step    6
Ti  1.242  -0.017  -0.482
O  2.486  -0.004  0.555
O  -0.050  1.306  -0.009
Ti  -1.214  0.014  0.475
O  -2.532  0.006  -0.504
O  0.011  -1.298  -0.021
    6
step    7
Ti  1.242  -0.018  -0.482
O  2.486  -0.004  0.554
O  -0.049  1.301  -0.008
Ti  -1.214  0.016  0.475
O  -2.528  0.004  -0.503
O  0.009  -1.294  -0.022
    6
step    8
Ti  1.243  -0.019  -0.481
O  2.484  -0.003  0.554
O  -0.049  1.295  -0.007
Ti  -1.216  0.018  0.474
O  -2.524  0.002  -0.502
O  0.007  -1.290  -0.024
    6
step    9
Ti  1.243  -0.020  -0.481
O  2.483  -0.002  0.553
O  -0.047  1.290  -0.006
Ti  -1.217  0.019  0.474
O  -2.519  -0.001  -0.500
O  0.005  -1.286  -0.025
    6
step   10
Ti  1.243  -0.020  -0.482
O  2.481  -0.002  0.553
O  -0.045  1.285  -0.005
Ti  -1.218  0.021  0.474
O  -2.515  -0.003  -0.499
O  0.003  -1.282  -0.026
    6
step   11
Ti  1.243  -0.021  -0.482
O  2.480  -0.001  0.553
O  -0.042  1.280  -0.005
Ti  -1.220  0.022  0.474
O  -2.510  -0.005  -0.498
O  0.001  -1.279  -0.027
    6
step   12
Ti  1.243  -0.021  -0.483
O  2.479  0.000  0.553
O  -0.039  1.275  -0.005
Ti  -1.221  0.023  0.475
O  -2.506  -0.007  -0.497
O  -0.000  -1.275  -0.028
    6
step   13
Ti  1.243  -0.021  -0.484
O  2.478  0.001  0.554
O  -0.035  1.271  -0.005
Ti  -1.222  0.024  0.477
O  -2.502  -0.009  -0.497
O  -0.002  -1.271  -0.030
    6
step   14
Ti  1.242  -0.020  -0.486
O  2.478  0.002  0.555
O  -0.030  1.266  -0.005
Ti  -1.224  0.024  0.478
O  -2.500  -0.012  -0.497
O  -0.004  -1.268  -0.031
    6
step   15
Ti  1.242  -0.020  -0.488
O  2.479  0.004  0.556
O  -0.025  1.263  -0.005
Ti  -1.225  0.024  0.480
O  -2.498  -0.014  -0.497
O  -0.005  -1.265  -0.033
    6
step   16
Ti  1.241  -0.019  -0.490
O  2.480  0.005  0.558
O  -0.019  1.260  -0.005
Ti  -1.226  0.024  0.483
O  -2.497  -0.016  -0.498
O  -0.007  -1.263  -0.034
    6
step   17
Ti  1.240  -0.019  -0.492
O  2.481  0.006  0.559
O  -0.013  1.257  -0.006
Ti  -1.227  0.024  0.486
O  -2.497  -0.018  -0.499
O  -0.009  -1.260  -0.036
    6
step   18
Ti  1.239  -0.018  -0.494
O  2.483  0.007  0.561
O  -0.007  1.255  -0.006
Ti  -1.228  0.023  0.489
O  -2.498  -0.021  -0.500
O  -0.010  -1.258  -0.038
    6
step   19
Ti  1.238  -0.017  -0.497
O  2.485  0.009  0.563
O  -0.000  1.253  -0.007
Ti  -1.229  0.023  0.492
O  -2.500  -0.023  -0.502
O  -0.012  -1.257  -0.039
    6
step   20
Ti  1.238  -0.016  -0.500
O  2.488  0.010  0.565
O  0.006  1.252  -0.008
Ti  -1.230  0.022  0.496
O  -2.503  -0.025  -0.505
O  -0.014  -1.256  -0.041
    6
step   21
Ti  1.237  -0.014  -0.503
O  2.490  0.011  0.567
O  0.013  1.251  -0.009
Ti  -1.231  0.021  0.500
O  -2.505  -0.027  -0.507
O  -0.016  -1.255  -0.042
    6
step   22
Ti  1.237  -0.013  -0.505
O  2.492  0.013  0.568
O  0.019  1.251  -0.010
Ti  -1.232  0.020  0.504
O  -2.508  -0.029  -0.510
O  -0.018  -1.255  -0.044
    6
step   23
Ti  1.237  -0.012  -0.508
O  2.493  0.014  0.569
O  0.026  1.251  -0.011
Ti  -1.233  0.019  0.508
O  -2.512  -0.031  -0.513
O  -0.020  -1.255  -0.045
    6
step   24
Ti  1.237  -0.010  -0.510
O  2.493  0.015  0.570
O  0.032  1.252  -0.012
Ti  -1.233  0.017  0.512
O  -2.514  -0.032  -0.515
O  -0.022  -1.255  -0.046
    6
step   25
Ti  1.237  -0.009  -0.513
O  2.493  0.016  0.570
O  0.038  1.253  -0.013
Ti  -1.234  0.016  0.515
O  -2.517  -0.034  -0.518
O  -0.024  -1.256  -0.047
    6
step   26
Ti  1.238  -0.007  -0.515
O  2.492  0.017  0.571
O  0.043  1.254  -0.014
Ti  -1.235  0.014  0.519
O  -2.518  -0.035  -0.520
O  -0.026  -1.257  -0.048
    6
step   27
Ti  1.239  -0.006  -0.517
O  2.490  0.019  0.570
O  0.048  1.256  -0.015
Ti  -1.236  0.013  0.522
O  -2.519  -0.037  -0.522
O  -0.028  -1.258  -0.049
    6
step   28
Ti  1.240  -0.004  -0.519
O  2.488  0.020  0.570
O  0.053  1.258  -0.016
Ti  -1.237  0.011  0.525
O  -2.520  -0.038  -0.524
O  -0.030  -1.260  -0.050
    6
step   29
Ti  1.242  -0.003  -0.520
O  2.485  0.021  0.569
O  0.057  1.260  -0.016
Ti  -1.238  0.010  0.528
O  -2.519  -0.039  -0.526
O  -0.032  -1.261  -0.050
    6
step   30
Ti  1.243  -0.002  -0.522
O  2.481  0.022  0.568
O  0.061  1.262  -0.017
Ti  -1.240  0.008  0.530
O  -2.518  -0.040  -0.527
O  -0.034  -1.263  -0.050
    6
step   31
Ti  1.245  -0.001  -0.523
O  2.478  0.022  0.567
O  0.064  1.265  -0.017
Ti  -1.241  0.007  0.532
O  -2.517  -0.040  -0.528
O  -0.036  -1.265  -0.050
    6
step   32
Ti  1.247  0.000  -0.524
O  2.474  0.023  0.566
O  0.067  1.267  -0.017
Ti  -1.242  0.005  0.533
O  -2.515  -0.041  -0.528
O  -0.038  -1.266  -0.049
    6
step   33
Ti  1.248  0.001  -0.524
O  2.470  0.024  0.564
O  0.068  1.270  -0.017
Ti  -1.244  0.004  0.534
O  -2.512  -0.041  -0.529
O  -0.040  -1.268  -0.049
    6
step   34
Ti  1.250  0.002  -0.525
O  2.467  0.024  0.563
O  0.070  1.273  -0.017
Ti  -1.245  0.002  0.535
O  -2.510  -0.041  -0.529
O  -0.042  -1.270  -0.048
    6
step   35
Ti  1.252  0.003  -0.525
O  2.465  0.025  0.562
O  0.070  1.276  -0.016
Ti  -1.247  0.001  0.535
O  -2.507  -0.041  -0.528
O  -0.044  -1.271  -0.047
    6
step   36
Ti  1.254  0.003  -0.526
O  2.463  0.025  0.561
O  0.070  1.278  -0.015
Ti  -1.248  0.000  0.535
O  -2.505  -0.041  -0.528
O  -0.045  -1.273  -0.046
    6
step   37
Ti  1.255  0.004  -0.526
O  2.462  0.025  0.561
O  0.069  1.281  -0.014
Ti  -1.249  -0.001  0.534
O  -2.503  -0.040  -0.527
O  -0.047  -1.274  -0.044
    6
step   38
Ti  1.257  0.004  -0.526
O  2.463  0.026  0.560
O  0.068  1.284  -0.013
Ti  -1.250  -0.002  0.534
O  -2.502  -0.040  -0.527
O  -0.048  -1.275  -0.043
    6
step   39
Ti  1.258  0.004  -0.526
O  2.464  0.026  0.560
O  0.066  1.286  -0.012
Ti  -1.252  -0.002  0.532
O  -2.501  -0.039  -0.526
O  -0.049  -1.276  -0.041
    6
step   40
Ti  1.259  0.004  -0.526
O  2.466  0.025  0.560
O  0.064  1.288  -0.011
Ti  -1.252  -0.003  0.531
O  -2.501  -0.038  -0.525
O  -0.050  -1.277  -0.039
    6
step   41
Ti  1.260  0.003  -0.526
O  2.470  0.025  0.561
O  0.061  1.290  -0.009
Ti  -1.253  -0.004  0.529
O  -2.501  -0.037  -0.524
O  -0.051  -1.277  -0.037
    6
step   42
Ti  1.261  0.003  -0.525
O  2.474  0.025  0.561
O  0.058  1.291  -0.008
Ti  -1.254  -0.004  0.527
O  -2.502  -0.036  -0.523
O  -0.051  -1.277  -0.035
    6
step   43
Ti  1.261  0.002  -0.525
O  2.478  0.025  0.562
O  0.054  1.293  -0.006
Ti  -1.254  -0.004  0.524
O  -2.503  -0.034  -0.522
O  -0.051  -1.277  -0.032
    6
step   44
Ti  1.262  0.001  -0.524
O  2.483  0.025  0.563
O  0.051  1.293  -0.004
Ti  -1.254  -0.004  0.522
O  -2.505  -0.033  -0.521
O  -0.051  -1.277  -0.030
    6
step   45
Ti  1.262  0.001  -0.523
O  2.488  0.024  0.563
O  0.047  1.294  -0.003
Ti  -1.254  -0.004  0.519
O  -2.507  -0.031  -0.520
O  -0.051  -1.276  -0.028
    6
step   46
Ti  1.262  -0.000  -0.522
O  2.493  0.024  0.564
O  0.043  1.294  -0.001
Ti  -1.254  -0.004  0.516
O  -2.509  -0.029  -0.519
O  -0.050  -1.276  -0.026
    6
step   47
Ti  1.262  -0.001  -0.521
O  2.497  0.024  0.564
O  0.039  1.294  0.001
Ti  -1.254  -0.004  0.513
O  -2.511  -0.028  -0.519
O  -0.049  -1.275  -0.024
    6
step   48
Ti  1.261  -0.002  -0.520
O  2.500  0.024  0.564
O  0.035  1.293  0.002
Ti  -1.253  -0.004  0.511
O  -2.513  -0.026  -0.518
O  -0.047  -1.274  -0.022
    6
step   49
Ti  1.261  -0.003  -0.518
O  2.502  0.023  0.564
O  0.032  1.292  0.004
Ti  -1.252  -0.003  0.508
O  -2.515  -0.024  -0.517
O  -0.046  -1.273  -0.020
    6
step   50
Ti  1.260  -0.004  -0.517
O  2.503  0.023  0.564
O  0.028  1.290  0.005
Ti  -1.251  -0.003  0.505
O  -2.516  -0.022  -0.516
O  -0.043  -1.271  -0.018
    6
step   51
Ti  1.259  -0.005  -0.515
O  2.504  0.023  0.563
O  0.025  1.288  0.006
Ti  -1.250  -0.002  0.503
O  -2.516  -0.020  -0.516
O  -0.041  -1.270  -0.016
    6
step   52
Ti  1.258  -0.006  -0.513
O  2.503  0.022  0.561
O  0.022  1.286  0.007
Ti  -1.248  -0.002  0.500
O  -2.516  -0.018  -0.515
O  -0.037  -1.269  -0.015
    6
step   53
Ti  1.257  -0.007  -0.511
O  2.500  0.021  0.560
O  0.018  1.283  0.008
Ti  -1.247  -0.001  0.498
O  -2.516  -0.016  -0.515
O  -0.034  -1.267  -0.014
    6
step   54
Ti  1.256  -0.007  -0.509
O  2.497  0.021  0.558
O  0.016  1.281  0.009
Ti  -1.245  0.000  0.496
O  -2.515  -0.013  -0.515
O  -0.030  -1.266  -0.012
    6
step   55
Ti  1.254  -0.008  -0.507
O  2.494  0.020  0.556
O  0.013  1.278  0.010
Ti  -1.243  0.001  0.494
O  -2.514  -0.011  -0.514
O  -0.026  -1.265  -0.011
    6
step   56
Ti  1.253  -0.009  -0.505
O  2.489  0.019  0.553
O  0.010  1.275  0.010
Ti  -1.241  0.002  0.493
O  -2.512  -0.009  -0.514
O  -0.021  -1.264  -0.010
    6
step   57
Ti  1.251  -0.010  -0.504
O  2.485  0.018  0.551
O  0.008  1.272  0.010
Ti  -1.239  0.003  0.491
O  -2.510  -0.007  -0.515
O  -0.017  -1.264  -0.010
    6
step   58
Ti  1.249  -0.010  -0.502
O  2.480  0.017  0.548
O  0.005  1.269  0.010
Ti  -1.237  0.004  0.490
O  -2.508  -0.005  -0.515
O  -0.012  -1.263  -0.009
    6
step   59
Ti  1.247  -0.011  -0.500
O  2.475  0.016  0.546
O  0.003  1.266  0.010
Ti  -1.235  0.006  0.489
O  -2.507  -0.003  -0.515
O  -0.007  -1.263  -0.009
    6
step   60
Ti  1.244  -0.011  -0.499
O  2.471  0.015  0.544
O  0.001  1.263  0.010
Ti  -1.233  0.007  0.489
O  -2.505  -0.001  -0.516
O  -0.002  -1.263  -0.008
    6
step   61
Ti  1.242  -0.012  -0.498
O  2.467  0.014  0.542
O  -0.001  1.261  0.010
Ti  -1.230  0.008  0.488
O  -2.504  0.001  -0.517
O  0.003  -1.264  -0.008
    6
step   62
Ti  1.239  -0.012  -0.497
O  2.464  0.014  0.541
O  -0.003  1.258  0.010
Ti  -1.228  0.009  0.488
O  -2.503  0.003  -0.518
O  0.008  -1.265  -0.008
    6
step   63
Ti  1.237  -0.012  -0.496
O  2.462  0.013  0.540
O  -0.005  1.257  0.009
Ti  -1.226  0.010  0.489
O  -2.503  0.005  -0.519
O  0.013  -1.267  -0.007
    6
step   64
Ti  1.234  -0.013  -0.496
O  2.461  0.012  0.539
O  -0.007  1.255  0.009
Ti  -1.223  0.011  0.489
O  -2.503  0.007  -0.521
O  0.017  -1.268  -0.007
    6
step   65
Ti  1.231  -0.013  -0.496
O  2.461  0.011  0.539
O  -0.009  1.254  0.008
Ti  -1.221  0.011  0.489
O  -2.503  0.009  -0.522
O  0.021  -1.271  -0.007
    6
step   66
Ti  1.228  -0.012  -0.496
O  2.462  0.011  0.539
O  -0.010  1.254  0.008
Ti  -1.219  0.012  0.490
O  -2.503  0.011  -0.523
O  0.025  -1.273  -0.007
    6
step   67
Ti  1.225  -0.012  -0.496
O  2.463  0.010  0.540
O  -0.011  1.254  0.007
Ti  -1.217  0.012  0.491
O  -2.504  0.013  -0.525
O  0.029  -1.276  -0.006
    6
step   68
Ti  1.222  -0.012  -0.497
O  2.466  0.009  0.540
O  -0.013  1.254  0.007
Ti  -1.216  0.012  0.492
O  -2.505  0.014  -0.526
O  0.032  -1.279  -0.006
    6
step   69
Ti  1.220  -0.011  -0.498
O  2.468  0.009  0.541
O  -0.014  1.255  0.006
Ti  -1.214  0.012  0.493
O  -2.505  0.016  -0.528
O  0.034  -1.282  -0.006
    6
step   70
Ti  1.217  -0.011  -0.499
O  2.471  0.009  0.543
O  -0.015  1.256  0.005
Ti  -1.213  0.012  0.494
O  -2.506  0.018  -0.529
O  0.037  -1.285  -0.005
    6
step   71
Ti  1.215  -0.010  -0.500
O  2.474  0.008  0.544
O  -0.016  1.258  0.004
Ti  -1.212  0.011  0.495
O  -2.506  0.020  -0.530
O  0.039  -1.289  -0.005
    6
step   72
Ti  1.213  -0.010  -0.501
O  2.476  0.008  0.545
O  -0.017  1.260  0.004
Ti  -1.211  0.010  0.497
O  -2.505  0.022  -0.531
O  0.040  -1.293  -0.005
    6
step   73
Ti  1.211  -0.009  -0.502
O  2.479  0.008  0.546
O  -0.017  1.263  0.003
Ti  -1.211  0.009  0.498
O  -2.504  0.023  -0.532
O  0.042  -1.296  -0.004
    6
step   74
Ti  1.210  -0.008  -0.503
O  2.481  0.008  0.547
O  -0.018  1.266  0.002
Ti  -1.211  0.008  0.499
O  -2.502  0.025  -0.532
O  0.043  -1.300  -0.004
    6
step   75
Ti  1.209  -0.007  -0.504
O  2.482  0.008  0.548
O  -0.019  1.269  0.001
Ti  -1.211  0.007  0.500
O  -2.500  0.027  -0.533
O  0.044  -1.303  -0.003
    6
step   76
Ti  1.208  -0.006  -0.506
O  2.483  0.008  0.548
O  -0.020  1.272  -0.000
Ti  -1.212  0.005  0.501
O  -2.497  0.029  -0.533
O  0.044  -1.306  -0.002
    6
step   77
Ti  1.208  -0.005  -0.507
O  2.483  0.008  0.548
O  -0.020  1.276  -0.001
Ti  -1.212  0.003  0.502
O  -2.493  0.030  -0.533
O  0.044  -1.309  -0.002
    6
step   78
Ti  1.208  -0.004  -0.507
O  2.482  0.008  0.548
O  -0.021  1.280  -0.002
Ti  -1.213  0.001  0.503
O  -2.489  0.032  -0.533
O  0.044  -1.312  -0.001
    6
step   79
Ti  1.208  -0.003  -0.508
O  2.481  0.009  0.548
O  -0.021  1.283  -0.003
Ti  -1.214  -0.001  0.504
O  -2.485  0.034  -0.533
O  0.043  -1.314  -0.000
    6
step   80
Ti  1.209  -0.002  -0.509
O  2.480  0.009  0.547
O  -0.022  1.287  -0.004
Ti  -1.216  -0.003  0.505
O  -2.480  0.035  -0.532
O  0.043  -1.316  0.000
    6
step   81
Ti  1.210  -0.001  -0.509
O  2.478  0.009  0.546
O  -0.023  1.291  -0.005
Ti  -1.217  -0.005  0.506
O  -2.476  0.037  -0.532
O  0.042  -1.317  0.001
    6
step   82
Ti  1.211  -0.000  -0.510
O  2.477  0.009  0.545
O  -0.023  1.294  -0.007
Ti  -1.219  -0.008  0.507
O  -2.472  0.038  -0.532
O  0.040  -1.318  0.002
    6
step   83
Ti  1.213  0.001  -0.510
O  2.475  0.010  0.544
O  -0.024  1.297  -0.008
Ti  -1.220  -0.010  0.508
O  -2.469  0.040  -0.532
O  0.039  -1.319  0.002
    6
step   84
Ti  1.214  0.002  -0.510
O  2.474  0.010  0.543
O  -0.024  1.300  -0.009
Ti  -1.221  -0.013  0.509
O  -2.466  0.041  -0.533
O  0.037  -1.319  0.003
    6
step   85
Ti  1.216  0.003  -0.510
O  2.473  0.010  0.541
O  -0.025  1.302  -0.010
Ti  -1.223  -0.015  0.509
O  -2.463  0.043  -0.533
O  0.035  -1.319  0.003
    6
step   86
Ti  1.218  0.004  -0.510
O  2.472  0.011  0.540
O  -0.025  1.303  -0.012
Ti  -1.224  -0.018  0.510
O  -2.462  0.044  -0.534
O  0.032  -1.318  0.004
    6
step   87
Ti  1.220  0.006  -0.510
O  2.472  0.012  0.539
O  -0.026  1.305  -0.013
Ti  -1.225  -0.021  0.511
O  -2.461  0.045  -0.534
O  0.030  -1.316  0.004
    6
step   88
Ti  1.222  0.007  -0.509
O  2.473  0.012  0.538
O  -0.026  1.305  -0.014
Ti  -1.227  -0.023  0.512
O  -2.461  0.046  -0.535
O  0.027  -1.315  0.004
    6
step   89
Ti  1.224  0.008  -0.509
O  2.474  0.013  0.537
O  -0.026  1.305  -0.015
Ti  -1.228  -0.026  0.513
O  -2.462  0.047  -0.536
O  0.024  -1.312  0.004
    6
step   90
Ti  1.227  0.009  -0.509
O  2.475  0.014  0.536
O  -0.027  1.304  -0.017
Ti  -1.228  -0.028  0.514
O  -2.464  0.048  -0.538
O  0.020  -1.310  0.004
    6
step   91
Ti  1.229  0.010  -0.509
O  2.478  0.015  0.535
O  -0.027  1.303  -0.018
Ti  -1.229  -0.030  0.515
O  -2.466  0.049  -0.539
O  0.017  -1.307  0.004
    6
step   92
Ti  1.231  0.011  -0.508
O  2.480  0.016  0.535
O  -0.027  1.301  -0.019
Ti  -1.230  -0.032  0.515
O  -2.469  0.050  -0.540
O  0.013  -1.304  0.004
    6
step   93
Ti  1.232  0.012  -0.508
O  2.483  0.017  0.534
O  -0.027  1.298  -0.020
Ti  -1.231  -0.034  0.516
O  -2.471  0.051  -0.542
O  0.009  -1.300  0.004
    6
step   94
Ti  1.234  0.013  -0.508
O  2.486  0.018  0.534
O  -0.027  1.295  -0.022
Ti  -1.231  -0.036  0.517
O  -2.474  0.051  -0.543
O  0.006  -1.296  0.003
    6
step   95
Ti  1.236  0.014  -0.508
O  2.488  0.019  0.534
O  -0.026  1.291  -0.023
Ti  -1.232  -0.038  0.518
O  -2.477  0.051  -0.544
O  0.002  -1.292  0.003
    6
step   96
Ti  1.238  0.015  -0.507
O  2.491  0.020  0.534
O  -0.026  1.287  -0.024
Ti  -1.232  -0.039  0.518
O  -2.479  0.052  -0.544
O  -0.002  -1.288  0.002
    6
step   97
Ti  1.240  0.016  -0.507
O  2.492  0.021  0.534
O  -0.025  1.283  -0.025
Ti  -1.233  -0.040  0.519
O  -2.481  0.052  -0.545
O  -0.005  -1.284  0.001
    6
step   98
Ti  1.241  0.017  -0.507
O  2.494  0.023  0.534
O  -0.025  1.278  -0.026
Ti  -1.234  -0.041  0.519
O  -2.483  0.052  -0.545
O  -0.009  -1.280  0.000
    6
step   99
Ti  1.242  0.017  -0.507
O  2.494  0.024  0.534
O  -0.024  1.273  -0.026
Ti  -1.234  -0.041  0.519
O  -2.483  0.051  -0.545
O  -0.012  -1.277  -0.001
    6
step  100
Ti  1.244  0.018  -0.507
O  2.494  0.025  0.534
O  -0.023  1.269  -0.027
Ti  -1.235  -0.041  0.520
O  -2.483  0.051  -0.545
O  -0.014  -1.274  -0.002
    6
step  101
Ti  1.245  0.018  -0.506
O  2.494  0.026  0.534
O  -0.022  1.264  -0.027
Ti  -1.236  -0.041  0.520
O  -2.482  0.051  -0.544
O  -0.016  -1.271  -0.003
    6
step  102
Ti  1.246  0.018  -0.506
O  2.492  0.027  0.534
O  -0.021  1.259  -0.028
Ti  -1.237  -0.041  0.520
O  -2.480  0.050  -0.543
O  -0.018  -1.268  -0.004
    6
step  103
Ti  1.247  0.018  -0.506
O  2.490  0.028  0.534
O  -0.020  1.254  -0.028
Ti  -1.238  -0.040  0.520
O  -2.478  0.050  -0.542
O  -0.019  -1.266  -0.005
    6
step  104
Ti  1.247  0.018  -0.507
O  2.488  0.029  0.534
O  -0.018  1.250  -0.028
Ti  -1.239  -0.039  0.520
O  -2.475  0.049  -0.541
O  -0.020  -1.264  -0.006
    6
step  105
Ti  1.248  0.017  -0.507
O  2.485  0.030  0.534
O  -0.017  1.246  -0.028
Ti  -1.240  -0.038  0.521
O  -2.472  0.048  -0.539
O  -0.021  -1.263  -0.008
    6
step  106
Ti  1.248  0.017  -0.507
O  2.482  0.031  0.534
O  -0.015  1.242  -0.028
Ti  -1.241  -0.037  0.521
O  -2.469  0.048  -0.538
O  -0.020  -1.262  -0.009
    6
step  107
Ti  1.248  0.016  -0.508
O  2.479  0.032  0.534
O  -0.014  1.238  -0.028
Ti  -1.241  -0.035  0.521
O  -2.466  0.047  -0.537
O  -0.020  -1.261  -0.010
    6
step  108
Ti  1.248  0.016  -0.509
O  2.476  0.033  0.535
O  -0.012  1.234  -0.027
Ti  -1.242  -0.033  0.522
O  -2.463  0.046  -0.536
O  -0.019  -1.261  -0.011
    6
step  109
Ti  1.248  0.015  -0.510
O  2.474  0.034  0.536
O  -0.011  1.231  -0.027
Ti  -1.242  -0.031  0.523
O  -2.461  0.046  -0.535
O  -0.018  -1.261  -0.012
    6
step  110
Ti  1.247  0.014  -0.512
O  2.472  0.035  0.537
O  -0.009  1.228  -0.026
Ti  -1.243  -0.029  0.524
O  -2.459  0.045  -0.534
O  -0.016  -1.262  -0.014
    6
step  111
Ti  1.246  0.012  -0.513
O  2.470  0.035  0.539
O  -0.008  1.226  -0.025
Ti  -1.243  -0.027  0.525
O  -2.458  0.044  -0.534
O  -0.014  -1.262  -0.015
    6
step  112
Ti  1.245  0.011  -0.515
O  2.469  0.036  0.540
O  -0.007  1.224  -0.024
Ti  -1.243  -0.024  0.527
O  -2.458  0.043  -0.534
O  -0.012  -1.264  -0.016
    6
step  113
Ti  1.244  0.010  -0.518
O  2.468  0.036  0.542
O  -0.006  1.222  -0.023
Ti  -1.242  -0.022  0.528
O  -2.458  0.042  -0.534
O  -0.010  -1.265  -0.017
    6
step  114
Ti  1.243  0.008  -0.520
O  2.468  0.037  0.545
O  -0.005  1.221  -0.022
Ti  -1.242  -0.019  0.530
O  -2.458  0.042  -0.534
O  -0.008  -1.267  -0.017
    6
step  115
Ti  1.241  0.007  -0.523
O  2.468  0.037  0.547
O  -0.004  1.221  -0.021
Ti  -1.241  -0.017  0.531
O  -2.460  0.041  -0.534
O  -0.005  -1.269  -0.018
    6
step  116
Ti  1.240  0.005  -0.525
O  2.469  0.037  0.550
O  -0.003  1.221  -0.019
Ti  -1.240  -0.014  0.533
O  -2.461  0.040  -0.535
O  -0.003  -1.271  -0.019
    6
step  117
Ti  1.238  0.003  -0.528
O  2.469  0.037  0.552
O  -0.003  1.221  -0.018
Ti  -1.239  -0.011  0.535
O  -2.463  0.039  -0.535
O  -0.000  -1.273  -0.019
    6
step  118
Ti  1.237  0.002  -0.531
O  2.469  0.037  0.555
O  -0.002  1.222  -0.017
Ti  -1.238  -0.009  0.536
O  -2.465  0.038  -0.536
O  0.002  -1.276  -0.020
    6
step  119
Ti  1.236  -0.000  -0.533
O  2.469  0.037  0.557
O  -0.002  1.223  -0.015
Ti  -1.237  -0.006  0.538
O  -2.467  0.037  -0.536
O  0.005  -1.278  -0.020
    6
step  120
Ti  1.234  -0.002  -0.536
O  2.469  0.037  0.559
O  -0.002  1.225  -0.014
Ti  -1.236  -0.004  0.540
O  -2.469  0.036  -0.537
O  0.007  -1.281  -0.021
    6
step  121
Ti  1.233  -0.004  -0.538
O  2.467  0.037  0.562
O  -0.002  1.227  -0.012
Ti  -1.235  -0.002  0.541
O  -2.470  0.035  -0.537
O  0.009  -1.283  -0.021
    6
step  122
Ti  1.232  -0.005  -0.540
O  2.466  0.037  0.563
O  -0.003  1.230  -0.011
Ti  -1.233  0.000  0.542
O  -2.471  0.035  -0.537
O  0.011  -1.285  -0.021
    6
step  123
Ti  1.231  -0.007  -0.542
O  2.463  0.037  0.565
O  -0.003  1.232  -0.009
Ti  -1.232  0.002  0.543
O  -2.471  0.034  -0.537
O  0.013  -1.288  -0.021
    6
step  124
Ti  1.231  -0.009  -0.544
O  2.460  0.036  0.566
O  -0.003  1.236  -0.008
Ti  -1.231  0.004  0.544
O  -2.471  0.033  -0.537
O  0.015  -1.290  -0.021
    6
step  125
Ti  1.230  -0.010  -0.546
O  2.456  0.036  0.567
O  -0.004  1.239  -0.007
Ti  -1.229  0.005  0.545
O  -2.471  0.032  -0.536
O  0.016  -1.291  -0.021
    6
step  126
Ti  1.230  -0.012  -0.547
O  2.452  0.035  0.568
O  -0.004  1.243  -0.006
Ti  -1.228  0.006  0.545
O  -2.470  0.030  -0.535
O  0.017  -1.293  -0.021
    6
step  127
Ti  1.229  -0.013  -0.548
O  2.448  0.035  0.569
O  -0.005  1.247  -0.005
Ti  -1.227  0.008  0.545
O  -2.469  0.029  -0.534
O  0.018  -1.294  -0.021
    6
step  128
Ti  1.229  -0.015  -0.549
O  2.443  0.034  0.569
O  -0.005  1.251  -0.004
Ti  -1.226  0.009  0.545
O  -2.467  0.028  -0.533
O  0.019  -1.295  -0.021
    6
step  129
Ti  1.229  -0.016  -0.549
O  2.438  0.033  0.570
O  -0.006  1.255  -0.003
Ti  -1.225  0.010  0.545
O  -2.466  0.027  -0.532
O  0.019  -1.296  -0.021
    6
step  130
Ti  1.229  -0.017  -0.550
O  2.434  0.033  0.570
O  -0.007  1.259  -0.002
Ti  -1.223  0.010  0.544
O  -2.465  0.026  -0.530
O  0.020  -1.297  -0.021
    6
step  131
Ti  1.230  -0.018  -0.550
O  2.429  0.032  0.570
O  -0.007  1.263  -0.001
Ti  -1.222  0.011  0.543
O  -2.464  0.024  -0.529
O  0.020  -1.297  -0.021
    6
step  132
Ti  1.230  -0.019  -0.550
O  2.426  0.032  0.570
O  -0.007  1.267  -0.000
Ti  -1.221  0.011  0.542
O  -2.463  0.023  -0.527
O  0.019  -1.297  -0.022
    6
step  133
Ti  1.230  -0.020  -0.549
O  2.422  0.031  0.571
O  -0.008  1.271  0.000
Ti  -1.220  0.011  0.541
O  -2.463  0.022  -0.525
O  0.019  -1.297  -0.022
    6
step  134
Ti  1.230  -0.021  -0.548
O  2.420  0.030  0.571
O  -0.008  1.275  0.000
Ti  -1.219  0.011  0.540
O  -2.463  0.020  -0.524
O  0.018  -1.296  -0.022
    6
step  135
Ti  1.231  -0.022  -0.548
O  2.418  0.030  0.571
O  -0.008  1.279  0.001
Ti  -1.218  0.011  0.538
O  -2.464  0.019  -0.522
O  0.016  -1.295  -0.022
    6
step  136
Ti  1.231  -0.022  -0.547
O  2.417  0.029  0.572
O  -0.008  1.283  0.001
Ti  -1.217  0.011  0.537
O  -2.465  0.017  -0.521
O  0.015  -1.294  -0.022
    6
step  137
Ti  1.231  -0.023  -0.546
O  2.416  0.028  0.572
O  -0.008  1.286  0.001
Ti  -1.216  0.011  0.535
O  -2.467  0.015  -0.520
O  0.013  -1.293  -0.022
    6
step  138
Ti  1.231  -0.023  -0.544
O  2.416  0.028  0.573
O  -0.007  1.289  0.001
Ti  -1.215  0.010  0.533
O  -2.470  0.014  -0.518
O  0.012  -1.292  -0.023
    6
step  139
Ti  1.231  -0.023  -0.543
O  2.417  0.027  0.573
O  -0.007  1.292  0.001
Ti  -1.214  0.010  0.531
O  -2.473  0.012  -0.517
O  0.010  -1.291  -0.023
    6
step  140
Ti  1.231  -0.024  -0.541
O  2.419  0.027  0.574
O  -0.006  1.294  0.001
Ti  -1.212  0.010  0.530
O  -2.476  0.010  -0.516
O  0.008  -1.289  -0.023
    6
step  141
Ti  1.231  -0.023  -0.540
O  2.420  0.026  0.575
O  -0.005  1.296  0.001
Ti  -1.212  0.009  0.527
O  -2.479  0.008  -0.515
O  0.005  -1.288  -0.024
    6
step  142
Ti  1.231  -0.023  -0.538
O  2.422  0.025  0.575
O  -0.004  1.297  0.001
Ti  -1.211  0.009  0.525
O  -2.482  0.006  -0.513
O  0.003  -1.286  -0.024
    6
step  143
Ti  1.231  -0.023  -0.536
O  2.424  0.025  0.576
O  -0.003  1.299  0.000
Ti  -1.210  0.008  0.523
O  -2.485  0.004  -0.512
O  0.001  -1.285  -0.025
    6
step  144
Ti  1.231  -0.022  -0.534
O  2.426  0.024  0.577
O  -0.001  1.299  -0.000
Ti  -1.209  0.008  0.521
O  -2.488  0.002  -0.511
O  -0.001  -1.283  -0.025
    6
step  145
Ti  1.231  -0.021  -0.533
O  2.428  0.023  0.577
O  0.000  1.300  -0.001
Ti  -1.209  0.008  0.518
O  -2.490  0.000  -0.509
O  -0.003  -1.282  -0.026
    6
step  146
Ti  1.230  -0.021  -0.531
O  2.429  0.023  0.578
O  0.002  1.300  -0.001
Ti  -1.208  0.007  0.516
O  -2.492  -0.002  -0.507
O  -0.005  -1.281  -0.026
    6
step  147
Ti  1.230  -0.020  -0.529
O  2.430  0.022  0.578
O  0.004  1.299  -0.002
Ti  -1.208  0.007  0.514
O  -2.492  -0.004  -0.505
O  -0.007  -1.280  -0.027
    6
step  148
Ti  1.230  -0.018  -0.527
O  2.431  0.021  0.579
O  0.005  1.298  -0.002
Ti  -1.208  0.007  0.511
O  -2.493  -0.006  -0.503
O  -0.008  -1.279  -0.027
    6
step  149
Ti  1.229  -0.017  -0.525
O  2.431  0.020  0.579
O  0.007  1.297  -0.003
Ti  -1.208  0.007  0.509
O  -2.492  -0.008  -0.500
O  -0.010  -1.278  -0.028
    6
step  150
Ti  1.229  -0.016  -0.523
O  2.430  0.019  0.579
O  0.009  1.296  -0.004
Ti  -1.208  0.006  0.507
O  -2.491  -0.010  -0.498
O  -0.011  -1.277  -0.028
    6
step  151
Ti  1.229  -0.014  -0.521
O  2.429  0.018  0.579
O  0.011  1.294  -0.005
Ti  -1.209  0.006  0.504
O  -2.489  -0.012  -0.495
O  -0.012  -1.277  -0.029
    6
step  152
Ti  1.228  -0.013  -0.520
O  2.428  0.017  0.579
O  0.013  1.293  -0.006
Ti  -1.209  0.006  0.502
O  -2.487  -0.014  -0.493
O  -0.013  -1.276  -0.030
    6
step  153
Ti  1.228  -0.011  -0.518
O  2.426  0.016  0.579
O  0.015  1.291  -0.006
Ti  -1.209  0.006  0.501
O  -2.485  -0.015  -0.491
O  -0.013  -1.276  -0.030
    6
step  154
Ti  1.228  -0.010  -0.517
O  2.424  0.014  0.579
O  0.017  1.289  -0.007
Ti  -1.209  0.006  0.499
O  -2.483  -0.017  -0.489
O  -0.014  -1.276  -0.030
    6
step  155
Ti  1.227  -0.008  -0.515
O  2.422  0.013  0.579
O  0.019  1.287  -0.008
Ti  -1.209  0.006  0.498
O  -2.481  -0.019  -0.487
O  -0.014  -1.276  -0.031
    6
step  156
Ti  1.227  -0.006  -0.514
O  2.421  0.012  0.578
O  0.021  1.285  -0.009
Ti  -1.210  0.006  0.497
O  -2.479  -0.020  -0.485
O  -0.015  -1.276  -0.031
    6
step  157
Ti  1.227  -0.005  -0.513
O  2.419  0.010  0.578
O  0.022  1.283  -0.010
Ti  -1.210  0.007  0.496
O  -2.478  -0.022  -0.484
O  -0.015  -1.277  -0.032
    6
step  158
Ti  1.226  -0.003  -0.513
O  2.418  0.009  0.578
O  0.023  1.281  -0.012
Ti  -1.209  0.007  0.496
O  -2.477  -0.023  -0.483
O  -0.015  -1.277  -0.032
    6
step  159
Ti  1.226  -0.002  -0.512
O  2.417  0.007  0.578
O  0.024  1.279  -0.013
Ti  -1.209  0.007  0.496
O  -2.476  -0.024  -0.483
O  -0.015  -1.278  -0.033
    6
step  160
Ti  1.225  -0.000  -0.512
O  2.416  0.006  0.579
O  0.025  1.278  -0.014
Ti  -1.209  0.007  0.496
O  -2.477  -0.026  -0.483
O  -0.015  -1.279  -0.033
    6
step  161
Ti  1.225  0.001  -0.513
O  2.416  0.004  0.579
O  0.026  1.277  -0.015
Ti  -1.209  0.007  0.497
O  -2.477  -0.027  -0.483
O  -0.014  -1.280  -0.034
    6
step  162
Ti  1.224  0.003  -0.513
O  2.416  0.003  0.580
O  0.026  1.276  -0.016
Ti  -1.208  0.007  0.498
O  -2.478  -0.028  -0.484
O  -0.014  -1.281  -0.034
    6
step  163
Ti  1.224  0.004  -0.514
O  2.417  0.001  0.580
O  0.027  1.275  -0.017
Ti  -1.207  0.007  0.499
O  -2.480  -0.029  -0.485
O  -0.014  -1.281  -0.035
    6
step  164
Ti  1.224  0.005  -0.515
O  2.417  -0.001  0.581
O  0.027  1.275  -0.018
Ti  -1.207  0.008  0.501
O  -2.482  -0.030  -0.486
O  -0.013  -1.282  -0.035
    6
step  165
Ti  1.223  0.006  -0.516
O  2.418  -0.002  0.582
O  0.026  1.275  -0.020
Ti  -1.206  0.008  0.503
O  -2.483  -0.030  -0.487
O  -0.013  -1.283  -0.036
    6
step  166
Ti  1.223  0.007  -0.518
O  2.419  -0.004  0.583
O  0.026  1.275  -0.021
Ti  -1.205  0.008  0.505
O  -2.485  -0.031  -0.489
O  -0.013  -1.284  -0.036
    6
step  167
Ti  1.223  0.008  -0.520
O  2.419  -0.006  0.583
O  0.025  1.275  -0.022
Ti  -1.204  0.008  0.508
O  -2.486  -0.032  -0.491
O  -0.012  -1.285  -0.036
    6
step  168
Ti  1.223  0.009  -0.521
O  2.419  -0.008  0.584
O  0.024  1.276  -0.023
Ti  -1.204  0.008  0.510
O  -2.487  -0.032  -0.492
O  -0.012  -1.285  -0.036
    6
step  169
Ti  1.223  0.009  -0.523
O  2.418  -0.009  0.585
O  0.022  1.277  -0.024
Ti  -1.203  0.008  0.513
O  -2.488  -0.033  -0.494
O  -0.011  -1.286  -0.037
    6
step  170
Ti  1.223  0.010  -0.525
O  2.418  -0.011  0.585
O  0.021  1.278  -0.025
Ti  -1.203  0.008  0.516
O  -2.488  -0.033  -0.496
O  -0.011  -1.286  -0.037
    6
step  171
Ti  1.223  0.010  -0.527
O  2.416  -0.013  0.586
O  0.019  1.280  -0.025
Ti  -1.202  0.008  0.519
O  -2.487  -0.034  -0.497
O  -0.010  -1.286  -0.037
    6
step  172
Ti  1.223  0.010  -0.530
O  2.414  -0.015  0.586
O  0.017  1.282  -0.026
Ti  -1.202  0.007  0.521
O  -2.485  -0.034  -0.498
O  -0.010  -1.285  -0.037
    6
step  173
Ti  1.224  0.010  -0.532
O  2.412  -0.017  0.587
O  0.014  1.284  -0.027
Ti  -1.202  0.007  0.524
O  -2.483  -0.034  -0.499
O  -0.009  -1.285  -0.037
    6
step  174
Ti  1.224  0.010  -0.534
O  2.410  -0.018  0.587
O  0.012  1.286  -0.028
Ti  -1.202  0.007  0.527
O  -2.480  -0.034  -0.500
O  -0.008  -1.284  -0.037
    6
step  175
Ti  1.225  0.010  -0.536
O  2.407  -0.020  0.587
O  0.009  1.288  -0.028
Ti  -1.202  0.007  0.529
O  -2.477  -0.034  -0.501
O  -0.008  -1.283  -0.037
    6
step  176
Ti  1.226  0.009  -0.538
O  2.404  -0.022  0.587
O  0.006  1.290  -0.029
Ti  -1.202  0.007  0.532
O  -2.474  -0.034  -0.502
O  -0.007  -1.282  -0.037
    6
step  177
Ti  1.226  0.009  -0.540
O  2.402  -0.023  0.587
O  0.003  1.292  -0.029
Ti  -1.203  0.007  0.534
O  -2.470  -0.034  -0.502
O  -0.006  -1.280  -0.036
    6
step  178
Ti  1.227  0.008  -0.543
O  2.399  -0.025  0.588
O  0.001  1.294  -0.030
Ti  -1.203  0.006  0.536
O  -2.466  -0.034  -0.503
O  -0.005  -1.279  -0.036
    6
step  179
Ti  1.228  0.008  -0.545
O  2.397  -0.027  0.588
O  -0.002  1.296  -0.030
Ti  -1.204  0.006  0.538
O  -2.463  -0.034  -0.503
O  -0.004  -1.277  -0.036
    6
step  180
Ti  1.228  0.007  -0.547
O  2.396  -0.028  0.588
O  -0.005  1.298  -0.030
Ti  -1.204  0.006  0.540
O  -2.459  -0.034  -0.503
O  -0.004  -1.275  -0.036
    6
step  181
Ti  1.229  0.006  -0.549